
.Version 9.9.2 of ABINIT 
.(MPI version, prepared for a x86_64_linux_gnu11.2 computer) 

.Copyright (C) 1998-2022 ABINIT group . 
 ABINIT comes with ABSOLUTELY NO WARRANTY.
 It is free software, and you are welcome to redistribute it
 under certain conditions (GNU General Public License,
 see ~abinit/COPYING or http://www.gnu.org/copyleft/gpl.txt).

 ABINIT is a project of the Universite Catholique de Louvain,
 Corning Inc. and other collaborators, see ~abinit/doc/developers/contributors.txt .
 Please read https://docs.abinit.org/theory/acknowledgments for suggested
 acknowledgments of the ABINIT effort.
 For more information, see https://www.abinit.org .

.Starting date : Fri 17 Feb 2023.
- ( at 00h45 )
  
- input  file    -> run.abi
- output file    -> run.abo
- root for input  files -> ../indata_ac
- root for output files -> outdata_ac


 DATASET    1 : space group F-4 3 m (#216); Bravais cF (face-center cubic)
================================================================================
 Values of the parameters that define the memory need for DATASET  1.
     intxc =       0    ionmov =       0      iscf =       7    lmnmax =       6
     lnmax =       6     mgfft =      36  mpssoang =       3    mqgrid =    3001
     natom =       2  nloc_mem =       1    nspden =       1   nspinor =       1
    nsppol =       1      nsym =      24    n1xccc =    2501    ntypat =       2
    occopt =       1   xclevel =       2
-    mband =         480        mffmem =           1         mkmem =           1
       mpw =        1700          nfft =       46656          nkpt =          29
================================================================================
P This job should need less than                      35.897 Mbytes of memory.
  Rough estimation (10% accuracy) of disk space for files :
_ WF disk file :    361.086 Mbytes ; DEN or POT disk file :      0.358 Mbytes.
================================================================================


 DATASET    2 : space group F-4 3 m (#216); Bravais cF (face-center cubic)
================================================================================
 Values of the parameters that define the memory need for DATASET  2.
     intxc =       0    ionmov =       0      iscf =       7    lmnmax =       6
     lnmax =       6     mgfft =      36  mpssoang =       3    mqgrid =    3001
     natom =       2  nloc_mem =       1    nspden =       1   nspinor =       1
    nsppol =       1      nsym =      24    n1xccc =    2501    ntypat =       2
    occopt =       1   xclevel =       2
-    mband =         480        mffmem =           1         mkmem =           1
       mpw =        1700          nfft =       46656          nkpt =          29
================================================================================
P This job should need less than                      35.897 Mbytes of memory.
  Rough estimation (10% accuracy) of disk space for files :
_ WF disk file :    361.086 Mbytes ; DEN or POT disk file :      0.358 Mbytes.
================================================================================

--------------------------------------------------------------------------------
------------- Echo of variables that govern the present computation ------------
--------------------------------------------------------------------------------
-
- outvars: echo of selected default values                                      
-   iomode0 =  0 , fftalg0 =312 , wfoptalg0 =  0
-
- outvars: echo of global parameters not present in the input file              
-  max_nthreads =    0
-
 -outvars: echo values of preprocessed input variables --------
            acell      8.2203086781E+00  8.2203086781E+00  8.2203086781E+00 Bohr
              amu      1.20110000E+01  2.80855000E+01
             bdgw           1       8       1       8
           diemac      1.20000000E+01
             ecut      4.00000000E+01 Hartree
          ecuteps      1.20000000E+01 Hartree
         ecutsigx      4.00000000E+01 Hartree
          ecutwfn      4.00000000E+01 Hartree
-          fftalg         312
           getscr1          0
           getscr2         -1
           istwfk        1    0    0    0    1    0    0    0    0    0
                         0    0    0    0    0    0    0    0    0    0
                         1    0    0    0    0    0    0    0    0
              ixc          11
           jdtset        1    2
              kpt      0.00000000E+00  0.00000000E+00  0.00000000E+00
                       1.25000000E-01  0.00000000E+00  0.00000000E+00
                       2.50000000E-01  0.00000000E+00  0.00000000E+00
                       3.75000000E-01  0.00000000E+00  0.00000000E+00
                       5.00000000E-01  0.00000000E+00  0.00000000E+00
                       1.25000000E-01  1.25000000E-01  0.00000000E+00
                       2.50000000E-01  1.25000000E-01  0.00000000E+00
                       3.75000000E-01  1.25000000E-01  0.00000000E+00
                       5.00000000E-01  1.25000000E-01  0.00000000E+00
                      -3.75000000E-01  1.25000000E-01  0.00000000E+00
                      -2.50000000E-01  1.25000000E-01  0.00000000E+00
                      -1.25000000E-01  1.25000000E-01  0.00000000E+00
                       2.50000000E-01  2.50000000E-01  0.00000000E+00
                       3.75000000E-01  2.50000000E-01  0.00000000E+00
                       5.00000000E-01  2.50000000E-01  0.00000000E+00
                      -3.75000000E-01  2.50000000E-01  0.00000000E+00
                      -2.50000000E-01  2.50000000E-01  0.00000000E+00
                       3.75000000E-01  3.75000000E-01  0.00000000E+00
                       5.00000000E-01  3.75000000E-01  0.00000000E+00
                      -3.75000000E-01  3.75000000E-01  0.00000000E+00
                       5.00000000E-01  5.00000000E-01  0.00000000E+00
                       3.75000000E-01  2.50000000E-01  1.25000000E-01
                       5.00000000E-01  2.50000000E-01  1.25000000E-01
                      -3.75000000E-01  2.50000000E-01  1.25000000E-01
                       5.00000000E-01  3.75000000E-01  1.25000000E-01
                      -3.75000000E-01  3.75000000E-01  1.25000000E-01
                      -2.50000000E-01  3.75000000E-01  1.25000000E-01
                      -3.75000000E-01  5.00000000E-01  1.25000000E-01
                      -2.50000000E-01  5.00000000E-01  2.50000000E-01
            kptgw      0.00000000E+00  0.00000000E+00  0.00000000E+00
                       5.00000000E-01  5.00000000E-01  0.00000000E+00
         kptrlatt        8    0    0      0    8    0      0    0    8
          kptrlen      4.65010881E+01
P           mkmem           1
            natom           2
            nband         480
           ndtset           2
            ngfft          36      36      36
             nkpt          29
           nkptgw           2
           npweps         283
          npwsigx        1687
           npwwfn        1687
            nstep          50
             nsym          24
           ntypat           2
              occ      2.000000  2.000000  2.000000  2.000000  0.000000  0.000000
                       0.000000  0.000000  0.000000  0.000000  0.000000  0.000000
                       0.000000  0.000000  0.000000  0.000000  0.000000  0.000000
                       0.000000  0.000000  0.000000  0.000000  0.000000  0.000000
                       0.000000  0.000000  0.000000  0.000000  0.000000  0.000000
                       0.000000  0.000000  0.000000  0.000000  0.000000  0.000000
                       0.000000  0.000000  0.000000  0.000000  0.000000  0.000000
                       0.000000  0.000000  0.000000  0.000000  0.000000  0.000000
                       0.000000  0.000000  0.000000  0.000000  0.000000  0.000000
                       0.000000  0.000000  0.000000  0.000000  0.000000  0.000000
                       0.000000  0.000000  0.000000  0.000000  0.000000  0.000000
                       0.000000  0.000000  0.000000  0.000000  0.000000  0.000000
                       0.000000  0.000000  0.000000  0.000000  0.000000  0.000000
                       0.000000  0.000000  0.000000  0.000000  0.000000  0.000000
                       0.000000  0.000000  0.000000  0.000000  0.000000  0.000000
                       0.000000  0.000000  0.000000  0.000000  0.000000  0.000000
                       0.000000  0.000000  0.000000  0.000000  0.000000  0.000000
                       0.000000  0.000000  0.000000  0.000000  0.000000  0.000000
                       0.000000  0.000000  0.000000  0.000000  0.000000  0.000000
                       0.000000  0.000000  0.000000  0.000000  0.000000  0.000000
                       0.000000  0.000000  0.000000  0.000000  0.000000  0.000000
                       0.000000  0.000000  0.000000  0.000000  0.000000  0.000000
                       0.000000  0.000000  0.000000  0.000000  0.000000  0.000000
                       0.000000  0.000000  0.000000  0.000000  0.000000  0.000000
                       0.000000  0.000000  0.000000  0.000000  0.000000  0.000000
                       0.000000  0.000000  0.000000  0.000000  0.000000  0.000000
                       0.000000  0.000000  0.000000  0.000000  0.000000  0.000000
                       0.000000  0.000000  0.000000  0.000000  0.000000  0.000000
                       0.000000  0.000000  0.000000  0.000000  0.000000  0.000000
                       0.000000  0.000000  0.000000  0.000000  0.000000  0.000000
                       0.000000  0.000000  0.000000  0.000000  0.000000  0.000000
                       0.000000  0.000000  0.000000  0.000000  0.000000  0.000000
                       0.000000  0.000000  0.000000  0.000000  0.000000  0.000000
                       0.000000  0.000000  0.000000  0.000000  0.000000  0.000000
                       0.000000  0.000000  0.000000  0.000000  0.000000  0.000000
                       0.000000  0.000000  0.000000  0.000000  0.000000  0.000000
                       0.000000  0.000000  0.000000  0.000000  0.000000  0.000000
                       0.000000  0.000000  0.000000  0.000000  0.000000  0.000000
                       0.000000  0.000000  0.000000  0.000000  0.000000  0.000000
                       0.000000  0.000000  0.000000  0.000000  0.000000  0.000000
                       0.000000  0.000000  0.000000  0.000000  0.000000  0.000000
                       0.000000  0.000000  0.000000  0.000000  0.000000  0.000000
                       0.000000  0.000000  0.000000  0.000000  0.000000  0.000000
                       0.000000  0.000000  0.000000  0.000000  0.000000  0.000000
                       0.000000  0.000000  0.000000  0.000000  0.000000  0.000000
                       0.000000  0.000000  0.000000  0.000000  0.000000  0.000000
                       0.000000  0.000000  0.000000  0.000000  0.000000  0.000000
                       0.000000  0.000000  0.000000  0.000000  0.000000  0.000000
                       0.000000  0.000000  0.000000  0.000000  0.000000  0.000000
                       0.000000  0.000000  0.000000  0.000000  0.000000  0.000000
                       0.000000  0.000000  0.000000  0.000000  0.000000  0.000000
                       0.000000  0.000000  0.000000  0.000000  0.000000  0.000000
                       0.000000  0.000000  0.000000  0.000000  0.000000  0.000000
                       0.000000  0.000000  0.000000  0.000000  0.000000  0.000000
                       0.000000  0.000000  0.000000  0.000000  0.000000  0.000000
                       0.000000  0.000000  0.000000  0.000000  0.000000  0.000000
                       0.000000  0.000000  0.000000  0.000000  0.000000  0.000000
                       0.000000  0.000000  0.000000  0.000000  0.000000  0.000000
                       0.000000  0.000000  0.000000  0.000000  0.000000  0.000000
                       0.000000  0.000000  0.000000  0.000000  0.000000  0.000000
                       0.000000  0.000000  0.000000  0.000000  0.000000  0.000000
                       0.000000  0.000000  0.000000  0.000000  0.000000  0.000000
                       0.000000  0.000000  0.000000  0.000000  0.000000  0.000000
                       0.000000  0.000000  0.000000  0.000000  0.000000  0.000000
                       0.000000  0.000000  0.000000  0.000000  0.000000  0.000000
                       0.000000  0.000000  0.000000  0.000000  0.000000  0.000000
                       0.000000  0.000000  0.000000  0.000000  0.000000  0.000000
                       0.000000  0.000000  0.000000  0.000000  0.000000  0.000000
                       0.000000  0.000000  0.000000  0.000000  0.000000  0.000000
                       0.000000  0.000000  0.000000  0.000000  0.000000  0.000000
                       0.000000  0.000000  0.000000  0.000000  0.000000  0.000000
                       0.000000  0.000000  0.000000  0.000000  0.000000  0.000000
                       0.000000  0.000000  0.000000  0.000000  0.000000  0.000000
                       0.000000  0.000000  0.000000  0.000000  0.000000  0.000000
                       0.000000  0.000000  0.000000  0.000000  0.000000  0.000000
                       0.000000  0.000000  0.000000  0.000000  0.000000  0.000000
                       0.000000  0.000000  0.000000  0.000000  0.000000  0.000000
                       0.000000  0.000000  0.000000  0.000000  0.000000  0.000000
                       0.000000  0.000000  0.000000  0.000000  0.000000  0.000000
                       0.000000  0.000000  0.000000  0.000000  0.000000  0.000000
        optdriver1          3
        optdriver2          4
            rprim      0.0000000000E+00  5.0000000000E-01  5.0000000000E-01
                       5.0000000000E-01  0.0000000000E+00  5.0000000000E-01
                       5.0000000000E-01  5.0000000000E-01  0.0000000000E+00
          spgroup         216
           symrel      1  0  0   0  1  0   0  0  1       0 -1  1   0 -1  0   1 -1  0
                      -1  0  0  -1  0  1  -1  1  0       0  1 -1   1  0 -1   0  0 -1
                      -1  0  0  -1  1  0  -1  0  1       0 -1  1   1 -1  0   0 -1  0
                       1  0  0   0  0  1   0  1  0       0  1 -1   0  0 -1   1  0 -1
                      -1  0  1  -1  1  0  -1  0  0       0 -1  0   1 -1  0   0 -1  1
                       1  0 -1   0  0 -1   0  1 -1       0  1  0   0  0  1   1  0  0
                       1  0 -1   0  1 -1   0  0 -1       0 -1  0   0 -1  1   1 -1  0
                      -1  0  1  -1  0  0  -1  1  0       0  1  0   1  0  0   0  0  1
                       0  0 -1   0  1 -1   1  0 -1       1 -1  0   0 -1  1   0 -1  0
                       0  0  1   1  0  0   0  1  0      -1  1  0  -1  0  0  -1  0  1
                       0  0  1   0  1  0   1  0  0       1 -1  0   0 -1  0   0 -1  1
                       0  0 -1   1  0 -1   0  1 -1      -1  1  0  -1  0  1  -1  0  0
           timopt          -1
            typat      1  2
              wtk        0.00195    0.01563    0.01563    0.01563    0.00781    0.01172
                         0.04688    0.04688    0.04688    0.04688    0.04688    0.02344
                         0.01172    0.04688    0.04688    0.04688    0.02344    0.01172
                         0.04688    0.02344    0.00586    0.04688    0.09375    0.04688
                         0.04688    0.09375    0.04688    0.02344    0.01172
           xangst      0.0000000000E+00  0.0000000000E+00  0.0000000000E+00
                       1.0875000000E+00  1.0875000000E+00  1.0875000000E+00
            xcart      0.0000000000E+00  0.0000000000E+00  0.0000000000E+00
                       2.0550771695E+00  2.0550771695E+00  2.0550771695E+00
             xred      0.0000000000E+00  0.0000000000E+00  0.0000000000E+00
                       2.5000000000E-01  2.5000000000E-01  2.5000000000E-01
            znucl        6.00000   14.00000

================================================================================

 chkinp: Checking input parameters for consistency, jdtset=   1.

 chkinp: Checking input parameters for consistency, jdtset=   2.

================================================================================
== DATASET  1 ==================================================================
-   mpi_nproc: 512, omp_nthreads: -1 (-1 if OMP is not activated)


--- !DatasetInfo
iteration_state: {dtset: 1, }
dimensions: {natom: 2, nkpt: 29, mband: 480, nsppol: 1, nspinor: 1, nspden: 1, mpw: 1700, }
cutoff_energies: {ecut:  40.0, pawecutdg:  -1.0, }
electrons: {nelect:   8.00000000E+00, charge:   0.00000000E+00, occopt:   1.00000000E+00, tsmear:   1.00000000E-02, }
meta: {optdriver: 3, gwcalctyp: 0, }
...

 mkfilename: getwfk from: ../outdata_gs_DS2_WFK

 Exchange-correlation functional for the present dataset will be:
  GGA: Perdew-Burke-Ernzerhof functional - ixc=11
 Citation for XC functional:
  J.P.Perdew, K.Burke, M.Ernzerhof, PRL 77, 3865 (1996)

 SCREENING: Calculation of the susceptibility and dielectric matrices 

 Based on a program developped by R.W. Godby, V. Olevano, G. Onida, and L. Reining.
 Incorporated in ABINIT by V. Olevano, G.-M. Rignanese, and M. Torrent.
.Using single precision arithmetic ; gwpc =  4

 Real(R)+Recip(G) space primitive vectors, cartesian coordinates (Bohr,Bohr^-1):
 R(1)=  0.0000000  4.1101543  4.1101543  G(1)= -0.1216499  0.1216499  0.1216499
 R(2)=  4.1101543  0.0000000  4.1101543  G(2)=  0.1216499 -0.1216499  0.1216499
 R(3)=  4.1101543  4.1101543  0.0000000  G(3)=  0.1216499  0.1216499 -0.1216499
 Unit cell volume ucvol=  1.3886871E+02 bohr^3
 Angles (23,13,12)=  6.00000000E+01  6.00000000E+01  6.00000000E+01 degrees

--- Pseudopotential description ------------------------------------------------
- pspini: atom type   1  psp file is ../C.psp8
- pspatm: opening atomic psp file    ../C.psp8
- C     ONCVPSP-3.2.3.1  r_core=   1.20440   1.26326
-  6.00000   4.00000    170503                znucl, zion, pspdat
    8   11    1    4       600   0.00000      pspcod,pspxc,lmax,lloc,mmax,r2well
    5.99000000000000    4.00000000000000    0.00000000000000   rchrg,fchrg,qchrg
     nproj     2     2
     extension_switch     1
  pspatm : epsatm=    4.31347020
         --- l  ekb(1:nproj) -->
             0    6.481548    0.385504
             1   -4.199961   -0.877517
 pspatm: atomic psp has been read  and splines computed

- pspini: atom type   2  psp file is ../Si.psp8
- pspatm: opening atomic psp file    ../Si.psp8
- Si    ONCVPSP-3.2.3.1  r_core=   1.60303   1.72197   1.91712
- 14.00000   4.00000    170510                znucl, zion, pspdat
    8   11    2    4       600   0.00000      pspcod,pspxc,lmax,lloc,mmax,r2well
    5.99000000000000    4.00000000000000    0.00000000000000   rchrg,fchrg,qchrg
     nproj     2     2     2
     extension_switch     1
  pspatm : epsatm=    9.34321699
         --- l  ekb(1:nproj) -->
             0    5.168965    0.829883
             1    2.571282    0.578307
             2   -2.427311   -0.488097
 pspatm: atomic psp has been read  and splines computed

   1.09253498E+02                                ecore*ucvol(ha*bohr**3)
--------------------------------------------------------------------------------

 ==== K-mesh for the wavefunctions ====
 Number of points in the irreducible wedge :    29
 Reduced coordinates and weights : 

     1)     0.00000000E+00  0.00000000E+00  0.00000000E+00       0.00195
     2)     1.25000000E-01  0.00000000E+00  0.00000000E+00       0.01563
     3)     2.50000000E-01  0.00000000E+00  0.00000000E+00       0.01563
     4)     3.75000000E-01  0.00000000E+00  0.00000000E+00       0.01563
     5)     5.00000000E-01  0.00000000E+00  0.00000000E+00       0.00781
     6)     1.25000000E-01  1.25000000E-01  0.00000000E+00       0.01172
     7)     2.50000000E-01  1.25000000E-01  0.00000000E+00       0.04688
     8)     3.75000000E-01  1.25000000E-01  0.00000000E+00       0.04688
     9)     5.00000000E-01  1.25000000E-01  0.00000000E+00       0.04688
    10)    -3.75000000E-01  1.25000000E-01  0.00000000E+00       0.04688
    11)    -2.50000000E-01  1.25000000E-01  0.00000000E+00       0.04688
    12)    -1.25000000E-01  1.25000000E-01  0.00000000E+00       0.02344
    13)     2.50000000E-01  2.50000000E-01  0.00000000E+00       0.01172
    14)     3.75000000E-01  2.50000000E-01  0.00000000E+00       0.04688
    15)     5.00000000E-01  2.50000000E-01  0.00000000E+00       0.04688
    16)    -3.75000000E-01  2.50000000E-01  0.00000000E+00       0.04688
    17)    -2.50000000E-01  2.50000000E-01  0.00000000E+00       0.02344
    18)     3.75000000E-01  3.75000000E-01  0.00000000E+00       0.01172
    19)     5.00000000E-01  3.75000000E-01  0.00000000E+00       0.04688
    20)    -3.75000000E-01  3.75000000E-01  0.00000000E+00       0.02344
    21)     5.00000000E-01  5.00000000E-01  0.00000000E+00       0.00586
    22)     3.75000000E-01  2.50000000E-01  1.25000000E-01       0.04688
    23)     5.00000000E-01  2.50000000E-01  1.25000000E-01       0.09375
    24)    -3.75000000E-01  2.50000000E-01  1.25000000E-01       0.04688
    25)     5.00000000E-01  3.75000000E-01  1.25000000E-01       0.04688
    26)    -3.75000000E-01  3.75000000E-01  1.25000000E-01       0.09375
    27)    -2.50000000E-01  3.75000000E-01  1.25000000E-01       0.04688
    28)    -3.75000000E-01  5.00000000E-01  1.25000000E-01       0.02344
    29)    -2.50000000E-01  5.00000000E-01  2.50000000E-01       0.01172

 Together with 24 symmetry operations and time-reversal symmetry 
 yields   512 points in the full Brillouin Zone.


 ==== Q-mesh for the screening function ====
 Number of points in the irreducible wedge :    29
 Reduced coordinates and weights : 

     1)     0.00000000E+00  0.00000000E+00  0.00000000E+00       0.00195
     2)     1.25000000E-01  0.00000000E+00  0.00000000E+00       0.01563
     3)     2.50000000E-01  0.00000000E+00  0.00000000E+00       0.01563
     4)     3.75000000E-01  0.00000000E+00  0.00000000E+00       0.01563
     5)     5.00000000E-01  0.00000000E+00  0.00000000E+00       0.00781
     6)     1.25000000E-01  1.25000000E-01  0.00000000E+00       0.01172
     7)     2.50000000E-01  1.25000000E-01  0.00000000E+00       0.04688
     8)     3.75000000E-01  1.25000000E-01  0.00000000E+00       0.04688
     9)     5.00000000E-01  1.25000000E-01  0.00000000E+00       0.04688
    10)    -3.75000000E-01  1.25000000E-01  0.00000000E+00       0.04688
    11)    -2.50000000E-01  1.25000000E-01  0.00000000E+00       0.04688
    12)    -1.25000000E-01  1.25000000E-01  0.00000000E+00       0.02344
    13)     2.50000000E-01  2.50000000E-01  0.00000000E+00       0.01172
    14)     3.75000000E-01  2.50000000E-01  0.00000000E+00       0.04688
    15)     5.00000000E-01  2.50000000E-01  0.00000000E+00       0.04688
    16)    -3.75000000E-01  2.50000000E-01  0.00000000E+00       0.04688
    17)    -2.50000000E-01  2.50000000E-01  0.00000000E+00       0.02344
    18)     3.75000000E-01  3.75000000E-01  0.00000000E+00       0.01172
    19)     5.00000000E-01  3.75000000E-01  0.00000000E+00       0.04688
    20)    -3.75000000E-01  3.75000000E-01  0.00000000E+00       0.02344
    21)     5.00000000E-01  5.00000000E-01  0.00000000E+00       0.00586
    22)     3.75000000E-01  2.50000000E-01  1.25000000E-01       0.04688
    23)     5.00000000E-01  2.50000000E-01  1.25000000E-01       0.09375
    24)    -3.75000000E-01  2.50000000E-01  1.25000000E-01       0.04688
    25)     5.00000000E-01  3.75000000E-01  1.25000000E-01       0.04688
    26)    -3.75000000E-01  3.75000000E-01  1.25000000E-01       0.09375
    27)    -2.50000000E-01  3.75000000E-01  1.25000000E-01       0.04688
    28)    -3.75000000E-01  5.00000000E-01  1.25000000E-01       0.02344
    29)    -2.50000000E-01  5.00000000E-01  2.50000000E-01       0.01172

 Together with 24 symmetry operations and time-reversal symmetry 
 yields   512 points in the full Brillouin Zone.


 setmesh: FFT mesh size selected  =    25x   25x   25
          total number of points  =        15625


- screening: taking advantage of time-reversal symmetry 
- Maximum band index for partially occupied states nbvw = 4
- Remaining bands to be divided among processors   nbcw = 476
- Number of bands treated by each node ~0

 Number of electrons calculated from density =    8.0000; Expected =    8.0000
 average of density, n =  0.057608
 r_s =    1.6062
 omega_plasma =   23.1525 [eV]


 calculating chi0 at frequencies [eV] :
  1    0.000000E+00    0.000000E+00
  2    0.000000E+00    2.315252E+01


--------------------------------------------------------------------------------
  q-point number  1        q = ( 0.000000, 0.000000, 0.000000) [r.l.u.]
--------------------------------------------------------------------------------
  chi0(G,G') at the    1 th omega   0.0000   0.0000 [eV]
       1       2       3       4       5       6       7       8       9
    1  -0.000   0.000  -0.000   0.000  -0.000  -0.000   0.000  -0.000   0.000
        0.000   0.000  -0.000   0.000  -0.000   0.000  -0.000   0.000  -0.000

    2   0.000 -12.077  -1.117  -1.117  -1.117  -0.798  -2.010  -2.010  -2.010
       -0.000   0.000   0.000  -0.000  -0.000  -1.883  -0.434  -0.434  -0.434

  chi0(G,G') at the    2 th omega   0.0000  23.1525 [eV]
       1       2       3       4       5       6       7       8       9
    1  -0.000   0.000  -0.000   0.000  -0.000  -0.000   0.000  -0.000   0.000
        0.000   0.000  -0.000   0.000  -0.000   0.000  -0.000   0.000  -0.000

    2   0.000  -5.462  -0.292  -0.292  -0.292  -0.313  -0.571  -0.571  -0.571
       -0.000   0.000   0.000  -0.000  -0.000  -0.502  -0.134  -0.134  -0.134

 For q-point:  0.000010 0.000020 0.000030
  dielectric constant =   6.6584
  dielectric constant without local fields =   7.2953

  Average fulfillment of the sum rule on Im[epsilon] for q-point    1 :     98.55  [%]
  Heads and wings of the symmetrical epsilon^-1(G,G') 

   Upper and lower wings at the    1 th omega   0.0000   0.0000 [eV]
       1       2       3       4       5       6       7       8       9
      0.150   0.012  -0.036   0.036  -0.012  -0.012   0.036  -0.036   0.012
     -0.000   0.002  -0.006   0.006  -0.002   0.002  -0.006   0.006  -0.002
       1       2       3       4       5       6       7       8       9
      0.150   0.012  -0.036   0.036  -0.012  -0.012   0.036  -0.036   0.012
     -0.000  -0.002   0.006  -0.006   0.002  -0.002   0.006  -0.006   0.002


   Upper and lower wings at the    2 th omega   0.0000  23.1525 [eV]
       1       2       3       4       5       6       7       8       9
      0.595   0.012  -0.035   0.035  -0.012  -0.012   0.035  -0.035   0.012
     -0.000   0.002  -0.007   0.007  -0.002   0.002  -0.007   0.007  -0.002
       1       2       3       4       5       6       7       8       9
      0.595   0.012  -0.035   0.035  -0.012  -0.012   0.035  -0.035   0.012
     -0.000  -0.002   0.007  -0.007   0.002  -0.002   0.007  -0.007   0.002




--------------------------------------------------------------------------------
  q-point number  2        q = ( 0.125000, 0.000000, 0.000000) [r.l.u.]
--------------------------------------------------------------------------------
  chi0(G,G') at the    1 th omega   0.0000   0.0000 [eV]
       1       2       3       4       5       6       7       8       9
    1  -1.596  -1.008  -0.065  -0.065  -0.065   1.085  -0.727  -0.727  -0.727
        0.000  -0.177  -0.085  -0.085  -0.085  -0.155   0.176   0.176   0.176

    2  -1.008 -12.028  -1.236  -1.236  -1.236  -0.834  -2.093  -2.093  -2.093
        0.177   0.000  -0.095  -0.095  -0.095  -1.837  -0.368  -0.368  -0.368

  chi0(G,G') at the    2 th omega   0.0000  23.1525 [eV]
       1       2       3       4       5       6       7       8       9
    1  -0.209  -0.242   0.029   0.029   0.029   0.219  -0.122  -0.122  -0.122
        0.000  -0.049  -0.002  -0.002  -0.002  -0.036   0.029   0.029   0.029

    2  -0.242  -5.816  -0.298  -0.298  -0.298  -0.309  -0.665  -0.665  -0.665
        0.049   0.000  -0.017  -0.017  -0.017  -0.494  -0.133  -0.133  -0.133

  Average fulfillment of the sum rule on Im[epsilon] for q-point    2 :     98.46  [%]


--------------------------------------------------------------------------------
  q-point number  3        q = ( 0.250000, 0.000000, 0.000000) [r.l.u.]
--------------------------------------------------------------------------------
  chi0(G,G') at the    1 th omega   0.0000   0.0000 [eV]
       1       2       3       4       5       6       7       8       9
    1  -4.581  -1.579  -0.672  -0.672  -0.672   1.770  -1.584  -1.584  -1.584
        0.000  -0.327  -0.351  -0.351  -0.351  -0.239   0.412   0.412   0.412

    2  -1.579 -11.724  -1.165  -1.165  -1.165  -0.880  -2.038  -2.038  -2.038
        0.327   0.000  -0.150  -0.150  -0.150  -1.736  -0.312  -0.312  -0.312

  chi0(G,G') at the    2 th omega   0.0000  23.1525 [eV]
       1       2       3       4       5       6       7       8       9
    1  -0.788  -0.479  -0.039  -0.039  -0.039   0.390  -0.310  -0.310  -0.310
        0.000  -0.107  -0.036  -0.036  -0.036  -0.060   0.083   0.083   0.083

    2  -0.479  -6.011  -0.293  -0.293  -0.293  -0.295  -0.736  -0.736  -0.736
        0.107   0.000  -0.031  -0.031  -0.031  -0.467  -0.127  -0.127  -0.127

  Average fulfillment of the sum rule on Im[epsilon] for q-point    3 :     98.48  [%]


--------------------------------------------------------------------------------
  q-point number  4        q = ( 0.375000, 0.000000, 0.000000) [r.l.u.]
--------------------------------------------------------------------------------
  chi0(G,G') at the    1 th omega   0.0000   0.0000 [eV]
       1       2       3       4       5       6       7       8       9
    1  -7.098  -1.877  -1.271  -1.271  -1.271   2.094  -2.138  -2.138  -2.138
        0.000  -0.494  -0.620  -0.620  -0.620  -0.285   0.575   0.575   0.575

    2  -1.877 -11.182  -0.956  -0.956  -0.956  -0.887  -1.920  -1.920  -1.920
        0.494   0.000  -0.163  -0.163  -0.163  -1.612  -0.246  -0.246  -0.246

  chi0(G,G') at the    2 th omega   0.0000  23.1525 [eV]
       1       2       3       4       5       6       7       8       9
    1  -1.613  -0.691  -0.184  -0.184  -0.184   0.498  -0.526  -0.526  -0.526
        0.000  -0.170  -0.095  -0.095  -0.095  -0.073   0.150   0.150   0.150

    2  -0.691  -6.060  -0.274  -0.274  -0.274  -0.269  -0.784  -0.784  -0.784
        0.170   0.000  -0.042  -0.042  -0.042  -0.423  -0.118  -0.118  -0.118

  Average fulfillment of the sum rule on Im[epsilon] for q-point    4 :     98.50  [%]


--------------------------------------------------------------------------------
  q-point number  5        q = ( 0.500000, 0.000000, 0.000000) [r.l.u.]
--------------------------------------------------------------------------------
  chi0(G,G') at the    1 th omega   0.0000   0.0000 [eV]
       1       2       3       4       5       6       7       8       9
    1  -8.900  -2.029  -1.701  -1.701  -1.701   2.187  -2.404  -2.404  -2.404
        0.000  -0.679  -0.823  -0.823  -0.823  -0.301   0.671   0.671   0.671

    2  -2.029 -10.387  -0.713  -0.713  -0.713  -0.855  -1.777  -1.777  -1.777
        0.679   0.000  -0.150  -0.150  -0.150  -1.479  -0.193  -0.193  -0.193

  chi0(G,G') at the    2 th omega   0.0000  23.1525 [eV]
       1       2       3       4       5       6       7       8       9
    1  -2.542  -0.865  -0.375  -0.375  -0.375   0.535  -0.736  -0.736  -0.736
        0.000  -0.233  -0.169  -0.169  -0.169  -0.078   0.219   0.219   0.219

    2  -0.865  -5.978  -0.244  -0.244  -0.244  -0.230  -0.812  -0.812  -0.812
        0.233   0.000  -0.047  -0.047  -0.047  -0.362  -0.108  -0.108  -0.108

  Average fulfillment of the sum rule on Im[epsilon] for q-point    5 :     98.51  [%]


--------------------------------------------------------------------------------
  q-point number  6        q = ( 0.125000, 0.125000, 0.000000) [r.l.u.]
--------------------------------------------------------------------------------
  chi0(G,G') at the    1 th omega   0.0000   0.0000 [eV]
       1       2       3       4       5       6       7       8       9
    1  -2.118  -1.036   0.268   0.268  -1.036   0.268  -1.036  -1.036   0.268
        0.000  -0.234  -0.033  -0.033  -0.234   0.033   0.234   0.234   0.033

    2  -1.036 -12.167  -1.195  -1.195  -1.298  -0.981  -2.131  -2.131  -2.011
        0.234   0.000  -0.095  -0.095   0.000  -1.727  -0.335  -0.335  -0.409

  chi0(G,G') at the    2 th omega   0.0000  23.1525 [eV]
       1       2       3       4       5       6       7       8       9
    1  -0.277  -0.200   0.100   0.100  -0.200   0.100  -0.200  -0.200   0.100
        0.000  -0.045   0.009   0.009  -0.045  -0.009   0.045   0.045  -0.009

    2  -0.200  -5.734  -0.294  -0.294  -0.306  -0.324  -0.670  -0.670  -0.577
        0.045   0.000  -0.016  -0.016  -0.000  -0.485  -0.131  -0.131  -0.129

  Average fulfillment of the sum rule on Im[epsilon] for q-point    6 :     98.46  [%]


--------------------------------------------------------------------------------
  q-point number  7        q = ( 0.250000, 0.125000, 0.000000) [r.l.u.]
--------------------------------------------------------------------------------
  chi0(G,G') at the    1 th omega   0.0000   0.0000 [eV]
       1       2       3       4       5       6       7       8       9
    1  -4.582  -1.678  -0.197  -0.197  -1.390   1.016  -1.682  -1.682  -0.876
        0.000  -0.369  -0.228  -0.228  -0.427  -0.052   0.420   0.420   0.318

    2  -1.678 -11.894  -1.223  -1.223  -1.220  -1.021  -2.098  -2.098  -2.016
        0.369   0.000  -0.160  -0.160  -0.074  -1.647  -0.288  -0.288  -0.348

  chi0(G,G') at the    2 th omega   0.0000  23.1525 [eV]
       1       2       3       4       5       6       7       8       9
    1  -0.728  -0.433   0.068   0.068  -0.239   0.283  -0.348  -0.348  -0.104
        0.000  -0.098  -0.012  -0.012  -0.070  -0.036   0.086   0.086   0.046

    2  -0.433  -5.972  -0.293  -0.293  -0.303  -0.313  -0.739  -0.739  -0.672
        0.098   0.000  -0.032  -0.032  -0.016  -0.465  -0.127  -0.127  -0.124

  Average fulfillment of the sum rule on Im[epsilon] for q-point    7 :     98.48  [%]


--------------------------------------------------------------------------------
  q-point number  8        q = ( 0.375000, 0.125000, 0.000000) [r.l.u.]
--------------------------------------------------------------------------------
  chi0(G,G') at the    1 th omega   0.0000   0.0000 [eV]
       1       2       3       4       5       6       7       8       9
    1  -7.122  -1.993  -0.928  -0.928  -1.754   1.404  -2.228  -2.228  -1.685
        0.000  -0.504  -0.510  -0.510  -0.648  -0.095   0.589   0.589   0.526

    2  -1.993 -11.401  -1.072  -1.072  -1.018  -1.032  -1.993  -1.993  -1.916
        0.504   0.000  -0.178  -0.178  -0.114  -1.541  -0.238  -0.238  -0.274

  chi0(G,G') at the    2 th omega   0.0000  23.1525 [eV]
       1       2       3       4       5       6       7       8       9
    1  -1.462  -0.648  -0.056  -0.056  -0.348   0.410  -0.534  -0.534  -0.349
        0.000  -0.158  -0.063  -0.063  -0.118  -0.052   0.144   0.144   0.117

    2  -0.648  -6.061  -0.278  -0.278  -0.287  -0.290  -0.787  -0.787  -0.739
        0.158   0.000  -0.043  -0.043  -0.028  -0.427  -0.120  -0.120  -0.115

  Average fulfillment of the sum rule on Im[epsilon] for q-point    8 :     98.50  [%]


--------------------------------------------------------------------------------
  q-point number  9        q = ( 0.500000, 0.125000, 0.000000) [r.l.u.]
--------------------------------------------------------------------------------
  chi0(G,G') at the    1 th omega   0.0000   0.0000 [eV]
       1       2       3       4       5       6       7       8       9
    1  -9.004  -2.141  -1.525  -1.525  -2.016   1.547  -2.512  -2.512  -2.147
        0.000  -0.660  -0.746  -0.746  -0.835  -0.114   0.691   0.691   0.657

    2  -2.141 -10.672  -0.845  -0.845  -0.757  -1.003  -1.857  -1.857  -1.775
        0.660   0.000  -0.164  -0.164  -0.128  -1.424  -0.194  -0.194  -0.196

  chi0(G,G') at the    2 th omega   0.0000  23.1525 [eV]
       1       2       3       4       5       6       7       8       9
    1  -2.344  -0.829  -0.242  -0.242  -0.501   0.469  -0.727  -0.727  -0.595
        0.000  -0.219  -0.133  -0.133  -0.183  -0.058   0.208   0.208   0.193

    2  -0.829  -6.015  -0.251  -0.251  -0.260  -0.255  -0.816  -0.816  -0.783
        0.219   0.000  -0.050  -0.050  -0.037  -0.372  -0.112  -0.112  -0.104

  Average fulfillment of the sum rule on Im[epsilon] for q-point    9 :     98.51  [%]


--------------------------------------------------------------------------------
  q-point number 10        q = (-0.375000, 0.125000, 0.000000) [r.l.u.]
--------------------------------------------------------------------------------
  chi0(G,G') at the    1 th omega   0.0000   0.0000 [eV]
       1       2       3       4       5       6       7       8       9
    1  -8.444   1.523  -2.239  -2.239  -2.453  -2.102  -1.861  -1.861  -0.863
        0.000   0.109  -0.665  -0.665  -0.636   0.602   0.769   0.769   0.581

    2   1.523 -10.302  -0.658  -0.658  -0.985  -1.018  -1.570  -1.570  -0.807
       -0.109   0.000   0.140   0.140   0.236  -1.469  -0.332  -0.332  -0.538

  chi0(G,G') at the    2 th omega   0.0000  23.1525 [eV]
       1       2       3       4       5       6       7       8       9
    1  -2.042   0.457  -0.572  -0.572  -0.699  -0.773  -0.369  -0.369  -0.054
        0.000   0.057  -0.176  -0.176  -0.190   0.199   0.147   0.147   0.081

    2   0.457  -3.246  -0.222  -0.222  -0.222  -0.268  -0.248  -0.248  -0.029
       -0.057   0.000   0.030   0.030   0.048  -0.392  -0.082  -0.082  -0.076

  Average fulfillment of the sum rule on Im[epsilon] for q-point   10 :     98.51  [%]


--------------------------------------------------------------------------------
  q-point number 11        q = (-0.250000, 0.125000, 0.000000) [r.l.u.]
--------------------------------------------------------------------------------
  chi0(G,G') at the    1 th omega   0.0000   0.0000 [eV]
       1       2       3       4       5       6       7       8       9
    1  -6.320   1.315  -1.762  -1.762  -2.103  -1.911  -1.447  -1.447  -0.056
        0.000   0.080  -0.527  -0.527  -0.510   0.451   0.550   0.550   0.291

    2   1.315 -11.205  -0.722  -0.722  -1.019  -1.034  -1.750  -1.750  -1.106
       -0.080   0.000   0.125   0.125   0.221  -1.583  -0.376  -0.376  -0.582

  chi0(G,G') at the    2 th omega   0.0000  23.1525 [eV]
       1       2       3       4       5       6       7       8       9
    1  -1.194   0.375  -0.344  -0.344  -0.519  -0.579  -0.220  -0.220   0.128
        0.000   0.047  -0.105  -0.105  -0.130   0.138   0.085   0.085   0.013

    2   0.375  -4.077  -0.248  -0.248  -0.256  -0.299  -0.362  -0.362  -0.172
       -0.047   0.000   0.025   0.025   0.043  -0.441  -0.104  -0.104  -0.101

  Average fulfillment of the sum rule on Im[epsilon] for q-point   11 :     98.49  [%]


--------------------------------------------------------------------------------
  q-point number 12        q = (-0.125000, 0.125000, 0.000000) [r.l.u.]
--------------------------------------------------------------------------------
  chi0(G,G') at the    1 th omega   0.0000   0.0000 [eV]
       1       2       3       4       5       6       7       8       9
    1  -3.614   0.815  -0.963  -0.963  -1.509  -1.509  -0.963  -0.963   0.815
        0.000   0.023  -0.314  -0.314  -0.320   0.320   0.314   0.314  -0.023

    2   0.815 -11.829  -0.839  -0.839  -1.107  -1.008  -1.917  -1.917  -1.445
       -0.023   0.000   0.081   0.081   0.177  -1.681  -0.395  -0.395  -0.567

  chi0(G,G') at the    2 th omega   0.0000  23.1525 [eV]
       1       2       3       4       5       6       7       8       9
    1  -0.540   0.228  -0.130  -0.130  -0.356  -0.356  -0.130  -0.130   0.228
        0.000   0.028  -0.044  -0.044  -0.079   0.079   0.044   0.044  -0.028

    2   0.228  -4.783  -0.269  -0.269  -0.281  -0.318  -0.476  -0.476  -0.319
       -0.028   0.000   0.015   0.015   0.032  -0.473  -0.120  -0.120  -0.120

  Average fulfillment of the sum rule on Im[epsilon] for q-point   12 :     98.47  [%]


--------------------------------------------------------------------------------
  q-point number 13        q = ( 0.250000, 0.250000, 0.000000) [r.l.u.]
--------------------------------------------------------------------------------
  chi0(G,G') at the    1 th omega   0.0000   0.0000 [eV]
       1       2       3       4       5       6       7       8       9
    1  -5.965  -1.949  -0.266  -0.266  -1.949  -0.266  -1.949  -1.949  -0.266
        0.000  -0.511  -0.263  -0.263  -0.511   0.263   0.511   0.511   0.263

    2  -1.949 -12.065  -1.290  -1.290  -1.138  -1.302  -2.106  -2.106  -1.993
        0.511   0.000  -0.147  -0.147   0.000  -1.406  -0.249  -0.249  -0.342

  chi0(G,G') at the    2 th omega   0.0000  23.1525 [eV]
       1       2       3       4       5       6       7       8       9
    1  -1.027  -0.451   0.076   0.076  -0.451   0.076  -0.451  -0.451   0.076
        0.000  -0.113  -0.019  -0.019  -0.113   0.019   0.113   0.113   0.019

    2  -0.451  -5.943  -0.297  -0.297  -0.302  -0.350  -0.750  -0.750  -0.595
        0.113   0.000  -0.031  -0.031   0.000  -0.435  -0.120  -0.120  -0.115

  Average fulfillment of the sum rule on Im[epsilon] for q-point   13 :     98.49  [%]


--------------------------------------------------------------------------------
  q-point number 14        q = ( 0.375000, 0.250000, 0.000000) [r.l.u.]
--------------------------------------------------------------------------------
  chi0(G,G') at the    1 th omega   0.0000   0.0000 [eV]
       1       2       3       4       5       6       7       8       9
    1  -7.920  -2.267  -0.842  -0.842  -2.120   0.132  -2.311  -2.311  -1.314
        0.000  -0.600  -0.462  -0.462  -0.662   0.241   0.637   0.637   0.507

    2  -2.267 -11.571  -1.212  -1.212  -0.979  -1.299  -2.027  -2.027  -1.925
        0.600   0.000  -0.178  -0.178  -0.057  -1.329  -0.215  -0.215  -0.270

  chi0(G,G') at the    2 th omega   0.0000  23.1525 [eV]
       1       2       3       4       5       6       7       8       9
    1  -1.620  -0.651  -0.011  -0.011  -0.526   0.211  -0.597  -0.597  -0.186
        0.000  -0.165  -0.057  -0.057  -0.151   0.003   0.159   0.159   0.094

    2  -0.651  -6.057  -0.284  -0.284  -0.289  -0.330  -0.795  -0.795  -0.683
        0.165   0.000  -0.044  -0.044  -0.014  -0.404  -0.117  -0.117  -0.107

  Average fulfillment of the sum rule on Im[epsilon] for q-point   14 :     98.50  [%]


--------------------------------------------------------------------------------
  q-point number 15        q = ( 0.500000, 0.250000, 0.000000) [r.l.u.]
--------------------------------------------------------------------------------
  chi0(G,G') at the    1 th omega   0.0000   0.0000 [eV]
       1       2       3       4       5       6       7       8       9
    1  -9.666  -2.382  -1.533  -1.533  -2.231   0.316  -2.586  -2.586  -1.964
        0.000  -0.701  -0.699  -0.699  -0.818   0.236   0.737   0.737   0.665

    2  -2.382 -10.877  -1.010  -1.010  -0.763  -1.258  -1.909  -1.909  -1.785
        0.701   0.000  -0.172  -0.172  -0.093  -1.245  -0.186  -0.186  -0.188

  chi0(G,G') at the    2 th omega   0.0000  23.1525 [eV]
       1       2       3       4       5       6       7       8       9
    1  -2.392  -0.826  -0.173  -0.173  -0.642   0.287  -0.759  -0.759  -0.460
        0.000  -0.220  -0.118  -0.118  -0.203  -0.004   0.214   0.214   0.174

    2  -0.826  -6.038  -0.258  -0.258  -0.266  -0.296  -0.823  -0.823  -0.743
        0.220   0.000  -0.051  -0.051  -0.024  -0.357  -0.111  -0.111  -0.098

  Average fulfillment of the sum rule on Im[epsilon] for q-point   15 :     98.51  [%]


--------------------------------------------------------------------------------
  q-point number 16        q = (-0.375000, 0.250000, 0.000000) [r.l.u.]
--------------------------------------------------------------------------------
  chi0(G,G') at the    1 th omega   0.0000   0.0000 [eV]
       1       2       3       4       5       6       7       8       9
    1 -10.120   0.355  -2.473  -2.473  -2.529  -2.374  -2.369  -2.369  -0.692
        0.000  -0.241  -0.822  -0.822  -0.703   0.718   0.890   0.890   0.556

    2   0.355 -10.880  -0.778  -0.778  -1.024  -1.254  -1.828  -1.828  -0.335
        0.241   0.000   0.087   0.087   0.231  -1.237  -0.169  -0.169  -0.491

  chi0(G,G') at the    2 th omega   0.0000  23.1525 [eV]
       1       2       3       4       5       6       7       8       9
    1  -2.666   0.298  -0.664  -0.664  -0.855  -0.876  -0.579  -0.579   0.029
        0.000   0.005  -0.219  -0.219  -0.236   0.238   0.209   0.209   0.073

    2   0.298  -3.224  -0.232  -0.232  -0.203  -0.281  -0.321  -0.321   0.137
       -0.005   0.000   0.024   0.024   0.056  -0.337  -0.061  -0.061  -0.051

  Average fulfillment of the sum rule on Im[epsilon] for q-point   16 :     98.51  [%]


--------------------------------------------------------------------------------
  q-point number 17        q = (-0.250000, 0.250000, 0.000000) [r.l.u.]
--------------------------------------------------------------------------------
  chi0(G,G') at the    1 th omega   0.0000   0.0000 [eV]
       1       2       3       4       5       6       7       8       9
    1  -8.493   0.259  -2.097  -2.097  -2.320  -2.320  -2.097  -2.097   0.259
        0.000  -0.257  -0.717  -0.717  -0.605   0.605   0.717   0.717   0.257

    2   0.259 -11.659  -0.827  -0.827  -1.020  -1.300  -1.945  -1.945  -0.704
        0.257   0.000   0.082   0.082   0.227  -1.332  -0.223  -0.223  -0.582

  chi0(G,G') at the    2 th omega   0.0000  23.1525 [eV]
       1       2       3       4       5       6       7       8       9
    1  -1.860   0.244  -0.441  -0.441  -0.713  -0.713  -0.441  -0.441   0.244
        0.000  -0.000  -0.150  -0.150  -0.183   0.183   0.150   0.150   0.000

    2   0.244  -4.018  -0.255  -0.255  -0.243  -0.320  -0.418  -0.418  -0.009
        0.000   0.000   0.022   0.022   0.053  -0.390  -0.083  -0.083  -0.079

  Average fulfillment of the sum rule on Im[epsilon] for q-point   17 :     98.50  [%]


--------------------------------------------------------------------------------
  q-point number 18        q = ( 0.375000, 0.375000, 0.000000) [r.l.u.]
--------------------------------------------------------------------------------
  chi0(G,G') at the    1 th omega   0.0000   0.0000 [eV]
       1       2       3       4       5       6       7       8       9
    1  -8.923  -2.389  -1.014  -1.014  -2.389  -1.014  -2.389  -2.389  -1.014
        0.000  -0.696  -0.506  -0.506  -0.696   0.506   0.696   0.696   0.506

    2  -2.389 -11.647  -1.271  -1.271  -0.856  -1.506  -1.987  -1.987  -1.932
        0.696   0.000  -0.159  -0.159  -0.000  -1.091  -0.206  -0.206  -0.248

  chi0(G,G') at the    2 th omega   0.0000  23.1525 [eV]
       1       2       3       4       5       6       7       8       9
    1  -2.051  -0.701  -0.057  -0.057  -0.701  -0.057  -0.701  -0.701  -0.057
        0.000  -0.191  -0.079  -0.079  -0.191   0.079   0.191   0.191   0.079

    2  -0.701  -6.056  -0.294  -0.294  -0.280  -0.378  -0.807  -0.807  -0.618
        0.191   0.000  -0.043  -0.043   0.000  -0.360  -0.107  -0.107  -0.097

  Average fulfillment of the sum rule on Im[epsilon] for q-point   18 :     98.51  [%]


--------------------------------------------------------------------------------
  q-point number 19        q = ( 0.500000, 0.375000, 0.000000) [r.l.u.]
--------------------------------------------------------------------------------
  chi0(G,G') at the    1 th omega   0.0000   0.0000 [eV]
       1       2       3       4       5       6       7       8       9
    1 -10.167  -2.527  -1.536  -1.536  -2.386  -0.795  -2.548  -2.548  -1.828
        0.000  -0.748  -0.669  -0.669  -0.796   0.521   0.766   0.766   0.678

    2  -2.527 -10.973  -1.120  -1.120  -0.712  -1.447  -1.909  -1.909  -1.809
        0.748   0.000  -0.172  -0.172  -0.051  -1.039  -0.187  -0.187  -0.169

  chi0(G,G') at the    2 th omega   0.0000  23.1525 [eV]
       1       2       3       4       5       6       7       8       9
    1  -2.674  -0.857  -0.181  -0.181  -0.785   0.027  -0.826  -0.826  -0.345
        0.000  -0.236  -0.126  -0.126  -0.231   0.072   0.234   0.234   0.163

    2  -0.857  -6.051  -0.268  -0.268  -0.261  -0.345  -0.831  -0.831  -0.694
        0.236   0.000  -0.052  -0.052  -0.011  -0.321  -0.105  -0.105  -0.088

  Average fulfillment of the sum rule on Im[epsilon] for q-point   19 :     98.51  [%]


--------------------------------------------------------------------------------
  q-point number 20        q = (-0.375000, 0.375000, 0.000000) [r.l.u.]
--------------------------------------------------------------------------------
  chi0(G,G') at the    1 th omega   0.0000   0.0000 [eV]
       1       2       3       4       5       6       7       8       9
    1 -11.296  -0.687  -2.652  -2.652  -2.480  -2.480  -2.652  -2.652  -0.687
        0.000  -0.540  -0.963  -0.963  -0.789   0.789   0.963   0.963   0.540

    2  -0.687 -11.266  -0.941  -0.941  -0.903  -1.396  -1.950  -1.950   0.136
        0.540   0.000   0.044   0.044   0.183  -1.000  -0.059  -0.059  -0.333

  chi0(G,G') at the    2 th omega   0.0000  23.1525 [eV]
       1       2       3       4       5       6       7       8       9
    1  -3.383   0.057  -0.784  -0.784  -0.984  -0.984  -0.784  -0.784   0.057
        0.000  -0.070  -0.272  -0.272  -0.282   0.282   0.272   0.272   0.070

    2   0.057  -3.387  -0.254  -0.254  -0.173  -0.297  -0.410  -0.410   0.271
        0.070   0.000   0.017   0.017   0.059  -0.266  -0.038  -0.038  -0.026

  Average fulfillment of the sum rule on Im[epsilon] for q-point   20 :     98.51  [%]


--------------------------------------------------------------------------------
  q-point number 21        q = ( 0.500000, 0.500000, 0.000000) [r.l.u.]
--------------------------------------------------------------------------------
  chi0(G,G') at the    1 th omega   0.0000   0.0000 [eV]
       1       2       3       4       5       6       7       8       9
    1 -10.659  -2.516  -1.660  -1.660  -2.516  -1.660  -2.516  -2.516  -1.660
        0.000  -0.793  -0.703  -0.703  -0.793   0.703   0.793   0.793   0.703

    2  -2.516 -10.977  -1.121  -1.121  -0.625  -1.534  -1.864  -1.864  -1.805
        0.793   0.000  -0.156  -0.156   0.000  -0.834  -0.194  -0.194  -0.153

  chi0(G,G') at the    2 th omega   0.0000  23.1525 [eV]
       1       2       3       4       5       6       7       8       9
    1  -3.137  -0.915  -0.262  -0.262  -0.915  -0.262  -0.915  -0.915  -0.262
        0.000  -0.265  -0.157  -0.157  -0.265   0.157   0.265   0.265   0.157

    2  -0.915  -6.057  -0.278  -0.278  -0.248  -0.392  -0.840  -0.840  -0.639
        0.265   0.000  -0.050  -0.050   0.000  -0.271  -0.096  -0.096  -0.076

  Average fulfillment of the sum rule on Im[epsilon] for q-point   21 :     98.51  [%]


--------------------------------------------------------------------------------
  q-point number 22        q = ( 0.375000, 0.250000, 0.125000) [r.l.u.]
--------------------------------------------------------------------------------
  chi0(G,G') at the    1 th omega   0.0000   0.0000 [eV]
       1       2       3       4       5       6       7       8       9
    1  -6.750  -2.115  -1.256   0.333  -1.944   0.333  -1.944  -2.115  -1.256
        0.000  -0.521  -0.484  -0.180  -0.589   0.180   0.589   0.521   0.484

    2  -2.115 -11.764  -1.271  -1.134  -1.143  -1.242  -2.075  -2.042  -2.008
        0.521   0.000  -0.133  -0.210  -0.064  -1.434  -0.235  -0.245  -0.280

  chi0(G,G') at the    2 th omega   0.0000  23.1525 [eV]
       1       2       3       4       5       6       7       8       9
    1  -1.251  -0.561  -0.163   0.224  -0.407   0.224  -0.407  -0.561  -0.163
        0.000  -0.138  -0.076   0.008  -0.118  -0.008   0.118   0.138   0.076

    2  -0.561  -6.029  -0.302  -0.270  -0.299  -0.328  -0.751  -0.787  -0.683
        0.138   0.000  -0.031  -0.044  -0.015  -0.428  -0.116  -0.124  -0.113

  Average fulfillment of the sum rule on Im[epsilon] for q-point   22 :     98.49  [%]


--------------------------------------------------------------------------------
  q-point number 23        q = ( 0.500000, 0.250000, 0.125000) [r.l.u.]
--------------------------------------------------------------------------------
  chi0(G,G') at the    1 th omega   0.0000   0.0000 [eV]
       1       2       3       4       5       6       7       8       9
    1  -8.825  -2.292  -1.790  -0.586  -2.169   0.582  -2.384  -2.475  -1.951
        0.000  -0.630  -0.706  -0.484  -0.770   0.159   0.723   0.654   0.655

    2  -2.292 -11.158  -1.042  -1.023  -0.917  -1.224  -1.956  -1.932  -1.881
        0.630   0.000  -0.147  -0.204  -0.101  -1.345  -0.192  -0.211  -0.211

  chi0(G,G') at the    2 th omega   0.0000  23.1525 [eV]
       1       2       3       4       5       6       7       8       9
    1  -2.000  -0.752  -0.292   0.067  -0.520   0.323  -0.602  -0.715  -0.419
        0.000  -0.194  -0.130  -0.049  -0.168  -0.019   0.178   0.190   0.151

    2  -0.752  -6.059  -0.280  -0.252  -0.279  -0.300  -0.794  -0.818  -0.745
        0.194   0.000  -0.041  -0.053  -0.026  -0.386  -0.110  -0.119  -0.104

  Average fulfillment of the sum rule on Im[epsilon] for q-point   23 :     98.51  [%]


--------------------------------------------------------------------------------
  q-point number 24        q = (-0.375000, 0.250000, 0.125000) [r.l.u.]
--------------------------------------------------------------------------------
  chi0(G,G') at the    1 th omega   0.0000   0.0000 [eV]
       1       2       3       4       5       6       7       8       9
    1 -10.295   0.648  -2.610  -2.339  -2.618  -2.339  -2.195  -2.320  -1.329
        0.000  -0.153  -0.804  -0.763  -0.730   0.755   0.885   0.921   0.728

    2   0.648 -10.295  -0.987  -0.356  -1.084  -1.169  -1.508  -1.721  -0.597
        0.153   0.000   0.156   0.064   0.234  -1.241  -0.191  -0.225  -0.365

  chi0(G,G') at the    2 th omega   0.0000  23.1525 [eV]
       1       2       3       4       5       6       7       8       9
    1  -2.850   0.357  -0.793  -0.665  -0.870  -0.909  -0.465  -0.664  -0.153
        0.000   0.023  -0.241  -0.227  -0.246   0.251   0.197   0.231   0.126

    2   0.357  -2.850  -0.220  -0.200  -0.197  -0.258  -0.162  -0.313   0.095
       -0.023   0.000   0.037   0.016   0.053  -0.327  -0.046  -0.067  -0.043

  Average fulfillment of the sum rule on Im[epsilon] for q-point   24 :     98.51  [%]


--------------------------------------------------------------------------------
  q-point number 25        q = ( 0.500000, 0.375000, 0.125000) [r.l.u.]
--------------------------------------------------------------------------------
  chi0(G,G') at the    1 th omega   0.0000   0.0000 [eV]
       1       2       3       4       5       6       7       8       9
    1  -9.461  -2.500  -1.734  -0.574  -2.386  -0.574  -2.386  -2.500  -1.734
        0.000  -0.699  -0.656  -0.459  -0.759   0.459   0.759   0.699   0.656

    2  -2.500 -11.291  -1.152  -1.167  -0.863  -1.453  -1.966  -1.946  -1.907
        0.699   0.000  -0.145  -0.205  -0.053  -1.140  -0.190  -0.194  -0.194

  chi0(G,G') at the    2 th omega   0.0000  23.1525 [eV]
       1       2       3       4       5       6       7       8       9
    1  -2.226  -0.771  -0.284   0.095  -0.677   0.095  -0.677  -0.771  -0.284
        0.000  -0.206  -0.135  -0.046  -0.198   0.046   0.198   0.206   0.135

    2  -0.771  -6.066  -0.291  -0.256  -0.276  -0.344  -0.806  -0.824  -0.694
        0.206   0.000  -0.042  -0.052  -0.012  -0.357  -0.104  -0.114  -0.095

  Average fulfillment of the sum rule on Im[epsilon] for q-point   25 :     98.51  [%]


--------------------------------------------------------------------------------
  q-point number 26        q = (-0.375000, 0.375000, 0.125000) [r.l.u.]
--------------------------------------------------------------------------------
  chi0(G,G') at the    1 th omega   0.0000   0.0000 [eV]
       1       2       3       4       5       6       7       8       9
    1 -11.454  -0.459  -2.700  -2.618  -2.570  -2.471  -2.602  -2.599  -1.297
        0.000  -0.466  -0.933  -0.905  -0.786   0.826   0.968   0.996   0.718

    2  -0.459 -10.812  -1.055  -0.594  -1.011  -1.323  -1.780  -1.880  -0.103
        0.466   0.000   0.097   0.026   0.203  -1.007  -0.059  -0.090  -0.215

  chi0(G,G') at the    2 th omega   0.0000  23.1525 [eV]
       1       2       3       4       5       6       7       8       9
    1  -3.472   0.146  -0.885  -0.770  -0.991  -1.000  -0.690  -0.834  -0.111
        0.000  -0.042  -0.285  -0.273  -0.286   0.288   0.264   0.283   0.122

    2   0.146  -2.962  -0.237  -0.218  -0.167  -0.268  -0.274  -0.385   0.237
        0.042   0.000   0.029   0.008   0.057  -0.264  -0.022  -0.049  -0.019

  Average fulfillment of the sum rule on Im[epsilon] for q-point   26 :     98.51  [%]


--------------------------------------------------------------------------------
  q-point number 27        q = (-0.250000, 0.375000, 0.125000) [r.l.u.]
--------------------------------------------------------------------------------
  chi0(G,G') at the    1 th omega   0.0000   0.0000 [eV]
       1       2       3       4       5       6       7       8       9
    1 -10.410  -0.456  -2.517  -2.335  -2.521  -2.521  -2.335  -2.517  -0.456
        0.000  -0.473  -0.873  -0.830  -0.731   0.731   0.830   0.873   0.473

    2  -0.456 -11.699  -1.104  -0.584  -1.027  -1.432  -1.873  -2.004  -0.514
        0.473   0.000   0.100   0.035   0.211  -1.121  -0.120  -0.143  -0.386

  chi0(G,G') at the    2 th omega   0.0000  23.1525 [eV]
       1       2       3       4       5       6       7       8       9
    1  -2.707   0.136  -0.707  -0.541  -0.873  -0.873  -0.541  -0.707   0.136
        0.000  -0.043  -0.227  -0.203  -0.239   0.239   0.203   0.227   0.043

    2   0.136  -3.725  -0.269  -0.236  -0.215  -0.318  -0.360  -0.462   0.117
        0.043   0.000   0.030   0.012   0.058  -0.324  -0.046  -0.069  -0.045

  Average fulfillment of the sum rule on Im[epsilon] for q-point   27 :     98.51  [%]


--------------------------------------------------------------------------------
  q-point number 28        q = (-0.375000, 0.500000, 0.125000) [r.l.u.]
--------------------------------------------------------------------------------
  chi0(G,G') at the    1 th omega   0.0000   0.0000 [eV]
       1       2       3       4       5       6       7       8       9
    1 -12.128  -1.376  -2.743  -2.787  -2.465  -2.465  -2.787  -2.743  -1.376
        0.000  -0.697  -1.033  -1.011  -0.858   0.858   1.011   1.033   0.697

    2  -1.376 -11.097  -1.114  -0.858  -0.762  -1.300  -1.908  -1.920   0.378
        0.697   0.000   0.055   0.000   0.135  -0.729   0.000  -0.009  -0.000

  chi0(G,G') at the    2 th omega   0.0000  23.1525 [eV]
       1       2       3       4       5       6       7       8       9
    1  -4.123  -0.121  -0.990  -0.893  -1.087  -1.087  -0.893  -0.990  -0.121
        0.000  -0.122  -0.335  -0.326  -0.325   0.325   0.326   0.335   0.122

    2  -0.121  -3.265  -0.261  -0.249  -0.130  -0.276  -0.391  -0.466   0.328
        0.122   0.000   0.020  -0.000   0.056  -0.189   0.000  -0.030  -0.000

  Average fulfillment of the sum rule on Im[epsilon] for q-point   28 :     98.51  [%]


--------------------------------------------------------------------------------
  q-point number 29        q = (-0.250000, 0.500000, 0.250000) [r.l.u.]
--------------------------------------------------------------------------------
  chi0(G,G') at the    1 th omega   0.0000   0.0000 [eV]
       1       2       3       4       5       6       7       8       9
    1 -11.780  -1.331  -2.633  -2.619  -2.601  -2.601  -2.619  -2.633  -1.331
        0.000  -0.714  -0.951  -0.920  -0.827   0.827   0.920   0.951   0.714

    2  -1.331 -11.780  -1.164  -0.494  -0.995  -1.480  -1.844  -1.927  -0.509
        0.714   0.000   0.110   0.000   0.188  -0.860   0.000  -0.073   0.000

  chi0(G,G') at the    2 th omega   0.0000  23.1525 [eV]
       1       2       3       4       5       6       7       8       9
    1  -3.620  -0.070  -0.933  -0.684  -1.017  -1.017  -0.684  -0.933  -0.070
        0.000  -0.110  -0.297  -0.267  -0.296   0.296   0.267   0.297   0.110

    2  -0.070  -3.620  -0.269  -0.229  -0.183  -0.313  -0.340  -0.509   0.163
        0.110   0.000   0.036  -0.000   0.059  -0.240   0.000  -0.054   0.000

  Average fulfillment of the sum rule on Im[epsilon] for q-point   29 :     98.51  [%]

================================================================================
== DATASET  2 ==================================================================
-   mpi_nproc: 512, omp_nthreads: -1 (-1 if OMP is not activated)


--- !DatasetInfo
iteration_state: {dtset: 2, }
dimensions: {natom: 2, nkpt: 29, mband: 480, nsppol: 1, nspinor: 1, nspden: 1, mpw: 1700, }
cutoff_energies: {ecut:  40.0, pawecutdg:  -1.0, }
electrons: {nelect:   8.00000000E+00, charge:   0.00000000E+00, occopt:   1.00000000E+00, tsmear:   1.00000000E-02, }
meta: {optdriver: 4, gwcalctyp: 0, }
...

 mkfilename: getwfk from: ../outdata_gs_DS2_WFK

 mkfilename : getscr/=0, take file _SCR from output of DATASET   1.

 Exchange-correlation functional for the present dataset will be:
  GGA: Perdew-Burke-Ernzerhof functional - ixc=11
 Citation for XC functional:
  J.P.Perdew, K.Burke, M.Ernzerhof, PRL 77, 3865 (1996)

 SIGMA: Calculation of the GW corrections 

 Based on a program developped by R.W. Godby, V. Olevano, G. Onida, and L. Reining.
 Incorporated in ABINIT by V. Olevano, G.-M. Rignanese, and M. Torrent.
.Using single precision arithmetic ; gwpc =  4

 Real(R)+Recip(G) space primitive vectors, cartesian coordinates (Bohr,Bohr^-1):
 R(1)=  0.0000000  4.1101543  4.1101543  G(1)= -0.1216499  0.1216499  0.1216499
 R(2)=  4.1101543  0.0000000  4.1101543  G(2)=  0.1216499 -0.1216499  0.1216499
 R(3)=  4.1101543  4.1101543  0.0000000  G(3)=  0.1216499  0.1216499 -0.1216499
 Unit cell volume ucvol=  1.3886871E+02 bohr^3
 Angles (23,13,12)=  6.00000000E+01  6.00000000E+01  6.00000000E+01 degrees
--------------------------------------------------------------------------------

 ==== K-mesh for the wavefunctions ====
 Number of points in the irreducible wedge :    29
 Reduced coordinates and weights : 

     1)     0.00000000E+00  0.00000000E+00  0.00000000E+00       0.00195
     2)     1.25000000E-01  0.00000000E+00  0.00000000E+00       0.01563
     3)     2.50000000E-01  0.00000000E+00  0.00000000E+00       0.01563
     4)     3.75000000E-01  0.00000000E+00  0.00000000E+00       0.01563
     5)     5.00000000E-01  0.00000000E+00  0.00000000E+00       0.00781
     6)     1.25000000E-01  1.25000000E-01  0.00000000E+00       0.01172
     7)     2.50000000E-01  1.25000000E-01  0.00000000E+00       0.04688
     8)     3.75000000E-01  1.25000000E-01  0.00000000E+00       0.04688
     9)     5.00000000E-01  1.25000000E-01  0.00000000E+00       0.04688
    10)    -3.75000000E-01  1.25000000E-01  0.00000000E+00       0.04688
    11)    -2.50000000E-01  1.25000000E-01  0.00000000E+00       0.04688
    12)    -1.25000000E-01  1.25000000E-01  0.00000000E+00       0.02344
    13)     2.50000000E-01  2.50000000E-01  0.00000000E+00       0.01172
    14)     3.75000000E-01  2.50000000E-01  0.00000000E+00       0.04688
    15)     5.00000000E-01  2.50000000E-01  0.00000000E+00       0.04688
    16)    -3.75000000E-01  2.50000000E-01  0.00000000E+00       0.04688
    17)    -2.50000000E-01  2.50000000E-01  0.00000000E+00       0.02344
    18)     3.75000000E-01  3.75000000E-01  0.00000000E+00       0.01172
    19)     5.00000000E-01  3.75000000E-01  0.00000000E+00       0.04688
    20)    -3.75000000E-01  3.75000000E-01  0.00000000E+00       0.02344
    21)     5.00000000E-01  5.00000000E-01  0.00000000E+00       0.00586
    22)     3.75000000E-01  2.50000000E-01  1.25000000E-01       0.04688
    23)     5.00000000E-01  2.50000000E-01  1.25000000E-01       0.09375
    24)    -3.75000000E-01  2.50000000E-01  1.25000000E-01       0.04688
    25)     5.00000000E-01  3.75000000E-01  1.25000000E-01       0.04688
    26)    -3.75000000E-01  3.75000000E-01  1.25000000E-01       0.09375
    27)    -2.50000000E-01  3.75000000E-01  1.25000000E-01       0.04688
    28)    -3.75000000E-01  5.00000000E-01  1.25000000E-01       0.02344
    29)    -2.50000000E-01  5.00000000E-01  2.50000000E-01       0.01172

 Together with 24 symmetry operations and time-reversal symmetry 
 yields   512 points in the full Brillouin Zone.


 ==== Q-mesh for screening function ====
 Number of points in the irreducible wedge :    29
 Reduced coordinates and weights : 

     1)     0.00000000E+00  0.00000000E+00  0.00000000E+00       0.00195
     2)     1.25000000E-01  0.00000000E+00  0.00000000E+00       0.01563
     3)     2.50000000E-01  0.00000000E+00  0.00000000E+00       0.01563
     4)     3.75000000E-01  0.00000000E+00  0.00000000E+00       0.01563
     5)     5.00000000E-01  0.00000000E+00  0.00000000E+00       0.00781
     6)     1.25000000E-01  1.25000000E-01  0.00000000E+00       0.01172
     7)     2.50000000E-01  1.25000000E-01  0.00000000E+00       0.04688
     8)     3.75000000E-01  1.25000000E-01  0.00000000E+00       0.04688
     9)     5.00000000E-01  1.25000000E-01  0.00000000E+00       0.04688
    10)    -3.75000000E-01  1.25000000E-01  0.00000000E+00       0.04688
    11)    -2.50000000E-01  1.25000000E-01  0.00000000E+00       0.04688
    12)    -1.25000000E-01  1.25000000E-01  0.00000000E+00       0.02344
    13)     2.50000000E-01  2.50000000E-01  0.00000000E+00       0.01172
    14)     3.75000000E-01  2.50000000E-01  0.00000000E+00       0.04688
    15)     5.00000000E-01  2.50000000E-01  0.00000000E+00       0.04688
    16)    -3.75000000E-01  2.50000000E-01  0.00000000E+00       0.04688
    17)    -2.50000000E-01  2.50000000E-01  0.00000000E+00       0.02344
    18)     3.75000000E-01  3.75000000E-01  0.00000000E+00       0.01172
    19)     5.00000000E-01  3.75000000E-01  0.00000000E+00       0.04688
    20)    -3.75000000E-01  3.75000000E-01  0.00000000E+00       0.02344
    21)     5.00000000E-01  5.00000000E-01  0.00000000E+00       0.00586
    22)     3.75000000E-01  2.50000000E-01  1.25000000E-01       0.04688
    23)     5.00000000E-01  2.50000000E-01  1.25000000E-01       0.09375
    24)    -3.75000000E-01  2.50000000E-01  1.25000000E-01       0.04688
    25)     5.00000000E-01  3.75000000E-01  1.25000000E-01       0.04688
    26)    -3.75000000E-01  3.75000000E-01  1.25000000E-01       0.09375
    27)    -2.50000000E-01  3.75000000E-01  1.25000000E-01       0.04688
    28)    -3.75000000E-01  5.00000000E-01  1.25000000E-01       0.02344
    29)    -2.50000000E-01  5.00000000E-01  2.50000000E-01       0.01172

 Together with 24 symmetry operations and time-reversal symmetry 
 yields   512 points in the full Brillouin Zone.


 setmesh: FFT mesh size selected  =    36x   36x   36
          total number of points  =        46656


--- !ERROR
src_file: m_sigma_driver.F90
src_line: 403
mpi_rank: 0
message: |
    The number of MPI procs:512 is greater than nband:480
...

