
.Version 9.9.2 of ABINIT 
.(MPI version, prepared for a x86_64_linux_gnu11.2 computer) 

.Copyright (C) 1998-2022 ABINIT group . 
 ABINIT comes with ABSOLUTELY NO WARRANTY.
 It is free software, and you are welcome to redistribute it
 under certain conditions (GNU General Public License,
 see ~abinit/COPYING or http://www.gnu.org/copyleft/gpl.txt).

 ABINIT is a project of the Universite Catholique de Louvain,
 Corning Inc. and other collaborators, see ~abinit/doc/developers/contributors.txt .
 Please read https://docs.abinit.org/theory/acknowledgments for suggested
 acknowledgments of the ABINIT effort.
 For more information, see https://www.abinit.org .

.Starting date : Fri 17 Feb 2023.
- ( at 00h47 )
  
- input  file    -> run.abi
- output file    -> run.abo
- root for input  files -> ../indata_ac
- root for output files -> outdata_ac


 DATASET    1 : space group F-4 3 m (#216); Bravais cF (face-center cubic)
================================================================================
 Values of the parameters that define the memory need for DATASET  1.
     intxc =       0    ionmov =       0      iscf =       7    lmnmax =       6
     lnmax =       6     mgfft =      36  mpssoang =       3    mqgrid =    3001
     natom =       2  nloc_mem =       1    nspden =       1   nspinor =       1
    nsppol =       1      nsym =      24    n1xccc =    2501    ntypat =       2
    occopt =       1   xclevel =       2
-    mband =         480        mffmem =           1         mkmem =           1
       mpw =        1700          nfft =       46656          nkpt =          29
================================================================================
P This job should need less than                      35.897 Mbytes of memory.
  Rough estimation (10% accuracy) of disk space for files :
_ WF disk file :    361.086 Mbytes ; DEN or POT disk file :      0.358 Mbytes.
================================================================================


 DATASET    2 : space group F-4 3 m (#216); Bravais cF (face-center cubic)
================================================================================
 Values of the parameters that define the memory need for DATASET  2.
     intxc =       0    ionmov =       0      iscf =       7    lmnmax =       6
     lnmax =       6     mgfft =      36  mpssoang =       3    mqgrid =    3001
     natom =       2  nloc_mem =       1    nspden =       1   nspinor =       1
    nsppol =       1      nsym =      24    n1xccc =    2501    ntypat =       2
    occopt =       1   xclevel =       2
-    mband =         480        mffmem =           1         mkmem =           1
       mpw =        1700          nfft =       46656          nkpt =          29
================================================================================
P This job should need less than                      35.897 Mbytes of memory.
  Rough estimation (10% accuracy) of disk space for files :
_ WF disk file :    361.086 Mbytes ; DEN or POT disk file :      0.358 Mbytes.
================================================================================

--------------------------------------------------------------------------------
------------- Echo of variables that govern the present computation ------------
--------------------------------------------------------------------------------
-
- outvars: echo of selected default values                                      
-   iomode0 =  0 , fftalg0 =312 , wfoptalg0 =  0
-
- outvars: echo of global parameters not present in the input file              
-  max_nthreads =    0
-
 -outvars: echo values of preprocessed input variables --------
            acell      8.2203086781E+00  8.2203086781E+00  8.2203086781E+00 Bohr
              amu      1.20110000E+01  2.80855000E+01
             bdgw           1       8       1       8
           diemac      1.20000000E+01
             ecut      4.00000000E+01 Hartree
          ecuteps      1.20000000E+01 Hartree
         ecutsigx      4.00000000E+01 Hartree
          ecutwfn      4.00000000E+01 Hartree
-          fftalg         312
           getscr1          0
           getscr2         -1
           istwfk        1    0    0    0    1    0    0    0    0    0
                         0    0    0    0    0    0    0    0    0    0
                         1    0    0    0    0    0    0    0    0
              ixc          11
           jdtset        1    2
              kpt      0.00000000E+00  0.00000000E+00  0.00000000E+00
                       1.25000000E-01  0.00000000E+00  0.00000000E+00
                       2.50000000E-01  0.00000000E+00  0.00000000E+00
                       3.75000000E-01  0.00000000E+00  0.00000000E+00
                       5.00000000E-01  0.00000000E+00  0.00000000E+00
                       1.25000000E-01  1.25000000E-01  0.00000000E+00
                       2.50000000E-01  1.25000000E-01  0.00000000E+00
                       3.75000000E-01  1.25000000E-01  0.00000000E+00
                       5.00000000E-01  1.25000000E-01  0.00000000E+00
                      -3.75000000E-01  1.25000000E-01  0.00000000E+00
                      -2.50000000E-01  1.25000000E-01  0.00000000E+00
                      -1.25000000E-01  1.25000000E-01  0.00000000E+00
                       2.50000000E-01  2.50000000E-01  0.00000000E+00
                       3.75000000E-01  2.50000000E-01  0.00000000E+00
                       5.00000000E-01  2.50000000E-01  0.00000000E+00
                      -3.75000000E-01  2.50000000E-01  0.00000000E+00
                      -2.50000000E-01  2.50000000E-01  0.00000000E+00
                       3.75000000E-01  3.75000000E-01  0.00000000E+00
                       5.00000000E-01  3.75000000E-01  0.00000000E+00
                      -3.75000000E-01  3.75000000E-01  0.00000000E+00
                       5.00000000E-01  5.00000000E-01  0.00000000E+00
                       3.75000000E-01  2.50000000E-01  1.25000000E-01
                       5.00000000E-01  2.50000000E-01  1.25000000E-01
                      -3.75000000E-01  2.50000000E-01  1.25000000E-01
                       5.00000000E-01  3.75000000E-01  1.25000000E-01
                      -3.75000000E-01  3.75000000E-01  1.25000000E-01
                      -2.50000000E-01  3.75000000E-01  1.25000000E-01
                      -3.75000000E-01  5.00000000E-01  1.25000000E-01
                      -2.50000000E-01  5.00000000E-01  2.50000000E-01
            kptgw      0.00000000E+00  0.00000000E+00  0.00000000E+00
                       5.00000000E-01  5.00000000E-01  0.00000000E+00
         kptrlatt        8    0    0      0    8    0      0    0    8
          kptrlen      4.65010881E+01
P           mkmem           1
            natom           2
            nband         480
           ndtset           2
            ngfft          36      36      36
             nkpt          29
           nkptgw           2
           npweps         283
          npwsigx        1687
           npwwfn        1687
            nstep          50
             nsym          24
           ntypat           2
              occ      2.000000  2.000000  2.000000  2.000000  0.000000  0.000000
                       0.000000  0.000000  0.000000  0.000000  0.000000  0.000000
                       0.000000  0.000000  0.000000  0.000000  0.000000  0.000000
                       0.000000  0.000000  0.000000  0.000000  0.000000  0.000000
                       0.000000  0.000000  0.000000  0.000000  0.000000  0.000000
                       0.000000  0.000000  0.000000  0.000000  0.000000  0.000000
                       0.000000  0.000000  0.000000  0.000000  0.000000  0.000000
                       0.000000  0.000000  0.000000  0.000000  0.000000  0.000000
                       0.000000  0.000000  0.000000  0.000000  0.000000  0.000000
                       0.000000  0.000000  0.000000  0.000000  0.000000  0.000000
                       0.000000  0.000000  0.000000  0.000000  0.000000  0.000000
                       0.000000  0.000000  0.000000  0.000000  0.000000  0.000000
                       0.000000  0.000000  0.000000  0.000000  0.000000  0.000000
                       0.000000  0.000000  0.000000  0.000000  0.000000  0.000000
                       0.000000  0.000000  0.000000  0.000000  0.000000  0.000000
                       0.000000  0.000000  0.000000  0.000000  0.000000  0.000000
                       0.000000  0.000000  0.000000  0.000000  0.000000  0.000000
                       0.000000  0.000000  0.000000  0.000000  0.000000  0.000000
                       0.000000  0.000000  0.000000  0.000000  0.000000  0.000000
                       0.000000  0.000000  0.000000  0.000000  0.000000  0.000000
                       0.000000  0.000000  0.000000  0.000000  0.000000  0.000000
                       0.000000  0.000000  0.000000  0.000000  0.000000  0.000000
                       0.000000  0.000000  0.000000  0.000000  0.000000  0.000000
                       0.000000  0.000000  0.000000  0.000000  0.000000  0.000000
                       0.000000  0.000000  0.000000  0.000000  0.000000  0.000000
                       0.000000  0.000000  0.000000  0.000000  0.000000  0.000000
                       0.000000  0.000000  0.000000  0.000000  0.000000  0.000000
                       0.000000  0.000000  0.000000  0.000000  0.000000  0.000000
                       0.000000  0.000000  0.000000  0.000000  0.000000  0.000000
                       0.000000  0.000000  0.000000  0.000000  0.000000  0.000000
                       0.000000  0.000000  0.000000  0.000000  0.000000  0.000000
                       0.000000  0.000000  0.000000  0.000000  0.000000  0.000000
                       0.000000  0.000000  0.000000  0.000000  0.000000  0.000000
                       0.000000  0.000000  0.000000  0.000000  0.000000  0.000000
                       0.000000  0.000000  0.000000  0.000000  0.000000  0.000000
                       0.000000  0.000000  0.000000  0.000000  0.000000  0.000000
                       0.000000  0.000000  0.000000  0.000000  0.000000  0.000000
                       0.000000  0.000000  0.000000  0.000000  0.000000  0.000000
                       0.000000  0.000000  0.000000  0.000000  0.000000  0.000000
                       0.000000  0.000000  0.000000  0.000000  0.000000  0.000000
                       0.000000  0.000000  0.000000  0.000000  0.000000  0.000000
                       0.000000  0.000000  0.000000  0.000000  0.000000  0.000000
                       0.000000  0.000000  0.000000  0.000000  0.000000  0.000000
                       0.000000  0.000000  0.000000  0.000000  0.000000  0.000000
                       0.000000  0.000000  0.000000  0.000000  0.000000  0.000000
                       0.000000  0.000000  0.000000  0.000000  0.000000  0.000000
                       0.000000  0.000000  0.000000  0.000000  0.000000  0.000000
                       0.000000  0.000000  0.000000  0.000000  0.000000  0.000000
                       0.000000  0.000000  0.000000  0.000000  0.000000  0.000000
                       0.000000  0.000000  0.000000  0.000000  0.000000  0.000000
                       0.000000  0.000000  0.000000  0.000000  0.000000  0.000000
                       0.000000  0.000000  0.000000  0.000000  0.000000  0.000000
                       0.000000  0.000000  0.000000  0.000000  0.000000  0.000000
                       0.000000  0.000000  0.000000  0.000000  0.000000  0.000000
                       0.000000  0.000000  0.000000  0.000000  0.000000  0.000000
                       0.000000  0.000000  0.000000  0.000000  0.000000  0.000000
                       0.000000  0.000000  0.000000  0.000000  0.000000  0.000000
                       0.000000  0.000000  0.000000  0.000000  0.000000  0.000000
                       0.000000  0.000000  0.000000  0.000000  0.000000  0.000000
                       0.000000  0.000000  0.000000  0.000000  0.000000  0.000000
                       0.000000  0.000000  0.000000  0.000000  0.000000  0.000000
                       0.000000  0.000000  0.000000  0.000000  0.000000  0.000000
                       0.000000  0.000000  0.000000  0.000000  0.000000  0.000000
                       0.000000  0.000000  0.000000  0.000000  0.000000  0.000000
                       0.000000  0.000000  0.000000  0.000000  0.000000  0.000000
                       0.000000  0.000000  0.000000  0.000000  0.000000  0.000000
                       0.000000  0.000000  0.000000  0.000000  0.000000  0.000000
                       0.000000  0.000000  0.000000  0.000000  0.000000  0.000000
                       0.000000  0.000000  0.000000  0.000000  0.000000  0.000000
                       0.000000  0.000000  0.000000  0.000000  0.000000  0.000000
                       0.000000  0.000000  0.000000  0.000000  0.000000  0.000000
                       0.000000  0.000000  0.000000  0.000000  0.000000  0.000000
                       0.000000  0.000000  0.000000  0.000000  0.000000  0.000000
                       0.000000  0.000000  0.000000  0.000000  0.000000  0.000000
                       0.000000  0.000000  0.000000  0.000000  0.000000  0.000000
                       0.000000  0.000000  0.000000  0.000000  0.000000  0.000000
                       0.000000  0.000000  0.000000  0.000000  0.000000  0.000000
                       0.000000  0.000000  0.000000  0.000000  0.000000  0.000000
                       0.000000  0.000000  0.000000  0.000000  0.000000  0.000000
                       0.000000  0.000000  0.000000  0.000000  0.000000  0.000000
        optdriver1          3
        optdriver2          4
            rprim      0.0000000000E+00  5.0000000000E-01  5.0000000000E-01
                       5.0000000000E-01  0.0000000000E+00  5.0000000000E-01
                       5.0000000000E-01  5.0000000000E-01  0.0000000000E+00
          spgroup         216
           symrel      1  0  0   0  1  0   0  0  1       0 -1  1   0 -1  0   1 -1  0
                      -1  0  0  -1  0  1  -1  1  0       0  1 -1   1  0 -1   0  0 -1
                      -1  0  0  -1  1  0  -1  0  1       0 -1  1   1 -1  0   0 -1  0
                       1  0  0   0  0  1   0  1  0       0  1 -1   0  0 -1   1  0 -1
                      -1  0  1  -1  1  0  -1  0  0       0 -1  0   1 -1  0   0 -1  1
                       1  0 -1   0  0 -1   0  1 -1       0  1  0   0  0  1   1  0  0
                       1  0 -1   0  1 -1   0  0 -1       0 -1  0   0 -1  1   1 -1  0
                      -1  0  1  -1  0  0  -1  1  0       0  1  0   1  0  0   0  0  1
                       0  0 -1   0  1 -1   1  0 -1       1 -1  0   0 -1  1   0 -1  0
                       0  0  1   1  0  0   0  1  0      -1  1  0  -1  0  0  -1  0  1
                       0  0  1   0  1  0   1  0  0       1 -1  0   0 -1  0   0 -1  1
                       0  0 -1   1  0 -1   0  1 -1      -1  1  0  -1  0  1  -1  0  0
           timopt          -1
            typat      1  2
              wtk        0.00195    0.01563    0.01563    0.01563    0.00781    0.01172
                         0.04688    0.04688    0.04688    0.04688    0.04688    0.02344
                         0.01172    0.04688    0.04688    0.04688    0.02344    0.01172
                         0.04688    0.02344    0.00586    0.04688    0.09375    0.04688
                         0.04688    0.09375    0.04688    0.02344    0.01172
           xangst      0.0000000000E+00  0.0000000000E+00  0.0000000000E+00
                       1.0875000000E+00  1.0875000000E+00  1.0875000000E+00
            xcart      0.0000000000E+00  0.0000000000E+00  0.0000000000E+00
                       2.0550771695E+00  2.0550771695E+00  2.0550771695E+00
             xred      0.0000000000E+00  0.0000000000E+00  0.0000000000E+00
                       2.5000000000E-01  2.5000000000E-01  2.5000000000E-01
            znucl        6.00000   14.00000

================================================================================

 chkinp: Checking input parameters for consistency, jdtset=   1.

 chkinp: Checking input parameters for consistency, jdtset=   2.

================================================================================
== DATASET  1 ==================================================================
-   mpi_nproc: 256, omp_nthreads: -1 (-1 if OMP is not activated)


--- !DatasetInfo
iteration_state: {dtset: 1, }
dimensions: {natom: 2, nkpt: 29, mband: 480, nsppol: 1, nspinor: 1, nspden: 1, mpw: 1700, }
cutoff_energies: {ecut:  40.0, pawecutdg:  -1.0, }
electrons: {nelect:   8.00000000E+00, charge:   0.00000000E+00, occopt:   1.00000000E+00, tsmear:   1.00000000E-02, }
meta: {optdriver: 3, gwcalctyp: 0, }
...

 mkfilename: getwfk from: ../outdata_gs_DS2_WFK

 Exchange-correlation functional for the present dataset will be:
  GGA: Perdew-Burke-Ernzerhof functional - ixc=11
 Citation for XC functional:
  J.P.Perdew, K.Burke, M.Ernzerhof, PRL 77, 3865 (1996)

 SCREENING: Calculation of the susceptibility and dielectric matrices 

 Based on a program developped by R.W. Godby, V. Olevano, G. Onida, and L. Reining.
 Incorporated in ABINIT by V. Olevano, G.-M. Rignanese, and M. Torrent.
.Using single precision arithmetic ; gwpc =  4

 Real(R)+Recip(G) space primitive vectors, cartesian coordinates (Bohr,Bohr^-1):
 R(1)=  0.0000000  4.1101543  4.1101543  G(1)= -0.1216499  0.1216499  0.1216499
 R(2)=  4.1101543  0.0000000  4.1101543  G(2)=  0.1216499 -0.1216499  0.1216499
 R(3)=  4.1101543  4.1101543  0.0000000  G(3)=  0.1216499  0.1216499 -0.1216499
 Unit cell volume ucvol=  1.3886871E+02 bohr^3
 Angles (23,13,12)=  6.00000000E+01  6.00000000E+01  6.00000000E+01 degrees

--- Pseudopotential description ------------------------------------------------
- pspini: atom type   1  psp file is ../C.psp8
- pspatm: opening atomic psp file    ../C.psp8
- C     ONCVPSP-3.2.3.1  r_core=   1.20440   1.26326
-  6.00000   4.00000    170503                znucl, zion, pspdat
    8   11    1    4       600   0.00000      pspcod,pspxc,lmax,lloc,mmax,r2well
    5.99000000000000    4.00000000000000    0.00000000000000   rchrg,fchrg,qchrg
     nproj     2     2
     extension_switch     1
  pspatm : epsatm=    4.31347020
         --- l  ekb(1:nproj) -->
             0    6.481548    0.385504
             1   -4.199961   -0.877517
 pspatm: atomic psp has been read  and splines computed

- pspini: atom type   2  psp file is ../Si.psp8
- pspatm: opening atomic psp file    ../Si.psp8
- Si    ONCVPSP-3.2.3.1  r_core=   1.60303   1.72197   1.91712
- 14.00000   4.00000    170510                znucl, zion, pspdat
    8   11    2    4       600   0.00000      pspcod,pspxc,lmax,lloc,mmax,r2well
    5.99000000000000    4.00000000000000    0.00000000000000   rchrg,fchrg,qchrg
     nproj     2     2     2
     extension_switch     1
  pspatm : epsatm=    9.34321699
         --- l  ekb(1:nproj) -->
             0    5.168965    0.829883
             1    2.571282    0.578307
             2   -2.427311   -0.488097
 pspatm: atomic psp has been read  and splines computed

   1.09253498E+02                                ecore*ucvol(ha*bohr**3)
--------------------------------------------------------------------------------

 ==== K-mesh for the wavefunctions ====
 Number of points in the irreducible wedge :    29
 Reduced coordinates and weights : 

     1)     0.00000000E+00  0.00000000E+00  0.00000000E+00       0.00195
     2)     1.25000000E-01  0.00000000E+00  0.00000000E+00       0.01563
     3)     2.50000000E-01  0.00000000E+00  0.00000000E+00       0.01563
     4)     3.75000000E-01  0.00000000E+00  0.00000000E+00       0.01563
     5)     5.00000000E-01  0.00000000E+00  0.00000000E+00       0.00781
     6)     1.25000000E-01  1.25000000E-01  0.00000000E+00       0.01172
     7)     2.50000000E-01  1.25000000E-01  0.00000000E+00       0.04688
     8)     3.75000000E-01  1.25000000E-01  0.00000000E+00       0.04688
     9)     5.00000000E-01  1.25000000E-01  0.00000000E+00       0.04688
    10)    -3.75000000E-01  1.25000000E-01  0.00000000E+00       0.04688
    11)    -2.50000000E-01  1.25000000E-01  0.00000000E+00       0.04688
    12)    -1.25000000E-01  1.25000000E-01  0.00000000E+00       0.02344
    13)     2.50000000E-01  2.50000000E-01  0.00000000E+00       0.01172
    14)     3.75000000E-01  2.50000000E-01  0.00000000E+00       0.04688
    15)     5.00000000E-01  2.50000000E-01  0.00000000E+00       0.04688
    16)    -3.75000000E-01  2.50000000E-01  0.00000000E+00       0.04688
    17)    -2.50000000E-01  2.50000000E-01  0.00000000E+00       0.02344
    18)     3.75000000E-01  3.75000000E-01  0.00000000E+00       0.01172
    19)     5.00000000E-01  3.75000000E-01  0.00000000E+00       0.04688
    20)    -3.75000000E-01  3.75000000E-01  0.00000000E+00       0.02344
    21)     5.00000000E-01  5.00000000E-01  0.00000000E+00       0.00586
    22)     3.75000000E-01  2.50000000E-01  1.25000000E-01       0.04688
    23)     5.00000000E-01  2.50000000E-01  1.25000000E-01       0.09375
    24)    -3.75000000E-01  2.50000000E-01  1.25000000E-01       0.04688
    25)     5.00000000E-01  3.75000000E-01  1.25000000E-01       0.04688
    26)    -3.75000000E-01  3.75000000E-01  1.25000000E-01       0.09375
    27)    -2.50000000E-01  3.75000000E-01  1.25000000E-01       0.04688
    28)    -3.75000000E-01  5.00000000E-01  1.25000000E-01       0.02344
    29)    -2.50000000E-01  5.00000000E-01  2.50000000E-01       0.01172

 Together with 24 symmetry operations and time-reversal symmetry 
 yields   512 points in the full Brillouin Zone.


 ==== Q-mesh for the screening function ====
 Number of points in the irreducible wedge :    29
 Reduced coordinates and weights : 

     1)     0.00000000E+00  0.00000000E+00  0.00000000E+00       0.00195
     2)     1.25000000E-01  0.00000000E+00  0.00000000E+00       0.01563
     3)     2.50000000E-01  0.00000000E+00  0.00000000E+00       0.01563
     4)     3.75000000E-01  0.00000000E+00  0.00000000E+00       0.01563
     5)     5.00000000E-01  0.00000000E+00  0.00000000E+00       0.00781
     6)     1.25000000E-01  1.25000000E-01  0.00000000E+00       0.01172
     7)     2.50000000E-01  1.25000000E-01  0.00000000E+00       0.04688
     8)     3.75000000E-01  1.25000000E-01  0.00000000E+00       0.04688
     9)     5.00000000E-01  1.25000000E-01  0.00000000E+00       0.04688
    10)    -3.75000000E-01  1.25000000E-01  0.00000000E+00       0.04688
    11)    -2.50000000E-01  1.25000000E-01  0.00000000E+00       0.04688
    12)    -1.25000000E-01  1.25000000E-01  0.00000000E+00       0.02344
    13)     2.50000000E-01  2.50000000E-01  0.00000000E+00       0.01172
    14)     3.75000000E-01  2.50000000E-01  0.00000000E+00       0.04688
    15)     5.00000000E-01  2.50000000E-01  0.00000000E+00       0.04688
    16)    -3.75000000E-01  2.50000000E-01  0.00000000E+00       0.04688
    17)    -2.50000000E-01  2.50000000E-01  0.00000000E+00       0.02344
    18)     3.75000000E-01  3.75000000E-01  0.00000000E+00       0.01172
    19)     5.00000000E-01  3.75000000E-01  0.00000000E+00       0.04688
    20)    -3.75000000E-01  3.75000000E-01  0.00000000E+00       0.02344
    21)     5.00000000E-01  5.00000000E-01  0.00000000E+00       0.00586
    22)     3.75000000E-01  2.50000000E-01  1.25000000E-01       0.04688
    23)     5.00000000E-01  2.50000000E-01  1.25000000E-01       0.09375
    24)    -3.75000000E-01  2.50000000E-01  1.25000000E-01       0.04688
    25)     5.00000000E-01  3.75000000E-01  1.25000000E-01       0.04688
    26)    -3.75000000E-01  3.75000000E-01  1.25000000E-01       0.09375
    27)    -2.50000000E-01  3.75000000E-01  1.25000000E-01       0.04688
    28)    -3.75000000E-01  5.00000000E-01  1.25000000E-01       0.02344
    29)    -2.50000000E-01  5.00000000E-01  2.50000000E-01       0.01172

 Together with 24 symmetry operations and time-reversal symmetry 
 yields   512 points in the full Brillouin Zone.


 setmesh: FFT mesh size selected  =    25x   25x   25
          total number of points  =        15625


- screening: taking advantage of time-reversal symmetry 
- Maximum band index for partially occupied states nbvw = 4
- Remaining bands to be divided among processors   nbcw = 476
- Number of bands treated by each node ~1

 Number of electrons calculated from density =    8.0000; Expected =    8.0000
 average of density, n =  0.057608
 r_s =    1.6062
 omega_plasma =   23.1525 [eV]


 calculating chi0 at frequencies [eV] :
  1    0.000000E+00    0.000000E+00
  2    0.000000E+00    2.315252E+01


--------------------------------------------------------------------------------
  q-point number  1        q = ( 0.000000, 0.000000, 0.000000) [r.l.u.]
--------------------------------------------------------------------------------
  chi0(G,G') at the    1 th omega   0.0000   0.0000 [eV]
       1       2       3       4       5       6       7       8       9
    1  -0.000   0.000  -0.000   0.000  -0.000  -0.000   0.000  -0.000   0.000
        0.000   0.000  -0.000   0.000  -0.000   0.000  -0.000   0.000  -0.000

    2   0.000 -12.077  -1.117  -1.117  -1.117  -0.798  -2.010  -2.010  -2.010
       -0.000   0.000   0.000  -0.000  -0.000  -1.883  -0.434  -0.434  -0.434

  chi0(G,G') at the    2 th omega   0.0000  23.1525 [eV]
       1       2       3       4       5       6       7       8       9
    1  -0.000   0.000  -0.000   0.000  -0.000  -0.000   0.000  -0.000   0.000
        0.000   0.000  -0.000   0.000  -0.000   0.000  -0.000   0.000  -0.000

    2   0.000  -5.462  -0.292  -0.292  -0.292  -0.313  -0.571  -0.571  -0.571
       -0.000   0.000   0.000  -0.000  -0.000  -0.502  -0.134  -0.134  -0.134

 For q-point:  0.000010 0.000020 0.000030
  dielectric constant =   6.6584
  dielectric constant without local fields =   7.2953

  Average fulfillment of the sum rule on Im[epsilon] for q-point    1 :     98.55  [%]
  Heads and wings of the symmetrical epsilon^-1(G,G') 

   Upper and lower wings at the    1 th omega   0.0000   0.0000 [eV]
       1       2       3       4       5       6       7       8       9
      0.150   0.012  -0.036   0.036  -0.012  -0.012   0.036  -0.036   0.012
     -0.000   0.002  -0.006   0.006  -0.002   0.002  -0.006   0.006  -0.002
       1       2       3       4       5       6       7       8       9
      0.150   0.012  -0.036   0.036  -0.012  -0.012   0.036  -0.036   0.012
     -0.000  -0.002   0.006  -0.006   0.002  -0.002   0.006  -0.006   0.002


   Upper and lower wings at the    2 th omega   0.0000  23.1525 [eV]
       1       2       3       4       5       6       7       8       9
      0.595   0.012  -0.035   0.035  -0.012  -0.012   0.035  -0.035   0.012
     -0.000   0.002  -0.007   0.007  -0.002   0.002  -0.007   0.007  -0.002
       1       2       3       4       5       6       7       8       9
      0.595   0.012  -0.035   0.035  -0.012  -0.012   0.035  -0.035   0.012
     -0.000  -0.002   0.007  -0.007   0.002  -0.002   0.007  -0.007   0.002




--------------------------------------------------------------------------------
  q-point number  2        q = ( 0.125000, 0.000000, 0.000000) [r.l.u.]
--------------------------------------------------------------------------------
  chi0(G,G') at the    1 th omega   0.0000   0.0000 [eV]
       1       2       3       4       5       6       7       8       9
    1  -1.596  -1.008  -0.065  -0.065  -0.065   1.085  -0.727  -0.727  -0.727
        0.000  -0.177  -0.085  -0.085  -0.085  -0.155   0.176   0.176   0.176

    2  -1.008 -12.028  -1.236  -1.236  -1.236  -0.834  -2.093  -2.093  -2.093
        0.177   0.000  -0.095  -0.095  -0.095  -1.837  -0.368  -0.368  -0.368

  chi0(G,G') at the    2 th omega   0.0000  23.1525 [eV]
       1       2       3       4       5       6       7       8       9
    1  -0.209  -0.242   0.029   0.029   0.029   0.219  -0.122  -0.122  -0.122
        0.000  -0.049  -0.002  -0.002  -0.002  -0.036   0.029   0.029   0.029

    2  -0.242  -5.816  -0.298  -0.298  -0.298  -0.309  -0.665  -0.665  -0.665
        0.049   0.000  -0.017  -0.017  -0.017  -0.494  -0.133  -0.133  -0.133

  Average fulfillment of the sum rule on Im[epsilon] for q-point    2 :     98.46  [%]


--------------------------------------------------------------------------------
  q-point number  3        q = ( 0.250000, 0.000000, 0.000000) [r.l.u.]
--------------------------------------------------------------------------------
  chi0(G,G') at the    1 th omega   0.0000   0.0000 [eV]
       1       2       3       4       5       6       7       8       9
    1  -4.581  -1.579  -0.672  -0.672  -0.672   1.770  -1.584  -1.584  -1.584
        0.000  -0.327  -0.351  -0.351  -0.351  -0.239   0.412   0.412   0.412

    2  -1.579 -11.724  -1.165  -1.165  -1.165  -0.880  -2.038  -2.038  -2.038
        0.327   0.000  -0.150  -0.150  -0.150  -1.736  -0.312  -0.312  -0.312

  chi0(G,G') at the    2 th omega   0.0000  23.1525 [eV]
       1       2       3       4       5       6       7       8       9
    1  -0.788  -0.479  -0.039  -0.039  -0.039   0.390  -0.310  -0.310  -0.310
        0.000  -0.107  -0.036  -0.036  -0.036  -0.060   0.083   0.083   0.083

    2  -0.479  -6.011  -0.293  -0.293  -0.293  -0.295  -0.736  -0.736  -0.736
        0.107   0.000  -0.031  -0.031  -0.031  -0.467  -0.127  -0.127  -0.127

  Average fulfillment of the sum rule on Im[epsilon] for q-point    3 :     98.48  [%]


--------------------------------------------------------------------------------
  q-point number  4        q = ( 0.375000, 0.000000, 0.000000) [r.l.u.]
--------------------------------------------------------------------------------
  chi0(G,G') at the    1 th omega   0.0000   0.0000 [eV]
       1       2       3       4       5       6       7       8       9
    1  -7.098  -1.877  -1.271  -1.271  -1.271   2.094  -2.138  -2.138  -2.138
        0.000  -0.494  -0.620  -0.620  -0.620  -0.285   0.575   0.575   0.575

    2  -1.877 -11.182  -0.956  -0.956  -0.956  -0.887  -1.920  -1.920  -1.920
        0.494   0.000  -0.163  -0.163  -0.163  -1.612  -0.246  -0.246  -0.246

  chi0(G,G') at the    2 th omega   0.0000  23.1525 [eV]
       1       2       3       4       5       6       7       8       9
    1  -1.613  -0.691  -0.184  -0.184  -0.184   0.498  -0.526  -0.526  -0.526
        0.000  -0.170  -0.095  -0.095  -0.095  -0.073   0.150   0.150   0.150

    2  -0.691  -6.060  -0.274  -0.274  -0.274  -0.269  -0.784  -0.784  -0.784
        0.170   0.000  -0.042  -0.042  -0.042  -0.423  -0.118  -0.118  -0.118

  Average fulfillment of the sum rule on Im[epsilon] for q-point    4 :     98.50  [%]


--------------------------------------------------------------------------------
  q-point number  5        q = ( 0.500000, 0.000000, 0.000000) [r.l.u.]
--------------------------------------------------------------------------------
  chi0(G,G') at the    1 th omega   0.0000   0.0000 [eV]
       1       2       3       4       5       6       7       8       9
    1  -8.900  -2.029  -1.701  -1.701  -1.701   2.187  -2.404  -2.404  -2.404
        0.000  -0.679  -0.823  -0.823  -0.823  -0.301   0.671   0.671   0.671

    2  -2.029 -10.387  -0.713  -0.713  -0.713  -0.855  -1.777  -1.777  -1.777
        0.679   0.000  -0.150  -0.150  -0.150  -1.479  -0.193  -0.193  -0.193

  chi0(G,G') at the    2 th omega   0.0000  23.1525 [eV]
       1       2       3       4       5       6       7       8       9
    1  -2.542  -0.865  -0.375  -0.375  -0.375   0.535  -0.736  -0.736  -0.736
        0.000  -0.233  -0.169  -0.169  -0.169  -0.078   0.219   0.219   0.219

    2  -0.865  -5.978  -0.244  -0.244  -0.244  -0.230  -0.812  -0.812  -0.812
        0.233   0.000  -0.047  -0.047  -0.047  -0.362  -0.108  -0.108  -0.108

  Average fulfillment of the sum rule on Im[epsilon] for q-point    5 :     98.51  [%]


--------------------------------------------------------------------------------
  q-point number  6        q = ( 0.125000, 0.125000, 0.000000) [r.l.u.]
--------------------------------------------------------------------------------
  chi0(G,G') at the    1 th omega   0.0000   0.0000 [eV]
       1       2       3       4       5       6       7       8       9
    1  -2.118  -1.036   0.268   0.268  -1.036   0.268  -1.036  -1.036   0.268
        0.000  -0.234  -0.033  -0.033  -0.234   0.033   0.234   0.234   0.033

    2  -1.036 -12.167  -1.195  -1.195  -1.298  -0.981  -2.131  -2.131  -2.011
        0.234   0.000  -0.095  -0.095  -0.000  -1.727  -0.335  -0.335  -0.409

  chi0(G,G') at the    2 th omega   0.0000  23.1525 [eV]
       1       2       3       4       5       6       7       8       9
    1  -0.277  -0.200   0.100   0.100  -0.200   0.100  -0.200  -0.200   0.100
        0.000  -0.045   0.009   0.009  -0.045  -0.009   0.045   0.045  -0.009

    2  -0.200  -5.734  -0.294  -0.294  -0.306  -0.324  -0.670  -0.670  -0.577
        0.045   0.000  -0.016  -0.016  -0.000  -0.485  -0.131  -0.131  -0.129

  Average fulfillment of the sum rule on Im[epsilon] for q-point    6 :     98.46  [%]


--------------------------------------------------------------------------------
  q-point number  7        q = ( 0.250000, 0.125000, 0.000000) [r.l.u.]
--------------------------------------------------------------------------------
  chi0(G,G') at the    1 th omega   0.0000   0.0000 [eV]
       1       2       3       4       5       6       7       8       9
    1  -4.582  -1.678  -0.197  -0.197  -1.390   1.016  -1.682  -1.682  -0.876
        0.000  -0.369  -0.228  -0.228  -0.427  -0.052   0.420   0.420   0.318

    2  -1.678 -11.894  -1.223  -1.223  -1.220  -1.021  -2.098  -2.098  -2.016
        0.369   0.000  -0.160  -0.160  -0.074  -1.647  -0.288  -0.288  -0.348

  chi0(G,G') at the    2 th omega   0.0000  23.1525 [eV]
       1       2       3       4       5       6       7       8       9
    1  -0.728  -0.433   0.068   0.068  -0.239   0.283  -0.348  -0.348  -0.104
        0.000  -0.098  -0.012  -0.012  -0.070  -0.036   0.086   0.086   0.046

    2  -0.433  -5.972  -0.293  -0.293  -0.303  -0.313  -0.739  -0.739  -0.672
        0.098   0.000  -0.032  -0.032  -0.016  -0.465  -0.127  -0.127  -0.124

  Average fulfillment of the sum rule on Im[epsilon] for q-point    7 :     98.48  [%]


--------------------------------------------------------------------------------
  q-point number  8        q = ( 0.375000, 0.125000, 0.000000) [r.l.u.]
--------------------------------------------------------------------------------
  chi0(G,G') at the    1 th omega   0.0000   0.0000 [eV]
       1       2       3       4       5       6       7       8       9
    1  -7.122  -1.993  -0.928  -0.928  -1.754   1.404  -2.228  -2.228  -1.685
        0.000  -0.504  -0.510  -0.510  -0.648  -0.095   0.589   0.589   0.526

    2  -1.993 -11.401  -1.072  -1.072  -1.018  -1.032  -1.993  -1.993  -1.916
        0.504   0.000  -0.178  -0.178  -0.114  -1.541  -0.238  -0.238  -0.274

  chi0(G,G') at the    2 th omega   0.0000  23.1525 [eV]
       1       2       3       4       5       6       7       8       9
    1  -1.462  -0.648  -0.056  -0.056  -0.348   0.410  -0.534  -0.534  -0.349
        0.000  -0.158  -0.063  -0.063  -0.118  -0.052   0.144   0.144   0.117

    2  -0.648  -6.061  -0.278  -0.278  -0.287  -0.290  -0.787  -0.787  -0.739
        0.158   0.000  -0.043  -0.043  -0.028  -0.427  -0.120  -0.120  -0.115

  Average fulfillment of the sum rule on Im[epsilon] for q-point    8 :     98.50  [%]


--------------------------------------------------------------------------------
  q-point number  9        q = ( 0.500000, 0.125000, 0.000000) [r.l.u.]
--------------------------------------------------------------------------------
  chi0(G,G') at the    1 th omega   0.0000   0.0000 [eV]
       1       2       3       4       5       6       7       8       9
    1  -9.004  -2.141  -1.525  -1.525  -2.016   1.547  -2.512  -2.512  -2.147
        0.000  -0.660  -0.746  -0.746  -0.835  -0.114   0.691   0.691   0.657

    2  -2.141 -10.672  -0.845  -0.845  -0.757  -1.003  -1.857  -1.857  -1.775
        0.660   0.000  -0.164  -0.164  -0.128  -1.424  -0.194  -0.194  -0.196

  chi0(G,G') at the    2 th omega   0.0000  23.1525 [eV]
       1       2       3       4       5       6       7       8       9
    1  -2.344  -0.829  -0.242  -0.242  -0.501   0.469  -0.727  -0.727  -0.595
        0.000  -0.219  -0.133  -0.133  -0.183  -0.058   0.208   0.208   0.193

    2  -0.829  -6.015  -0.251  -0.251  -0.260  -0.255  -0.816  -0.816  -0.783
        0.219   0.000  -0.050  -0.050  -0.037  -0.372  -0.112  -0.112  -0.104

  Average fulfillment of the sum rule on Im[epsilon] for q-point    9 :     98.51  [%]


--------------------------------------------------------------------------------
  q-point number 10        q = (-0.375000, 0.125000, 0.000000) [r.l.u.]
--------------------------------------------------------------------------------
  chi0(G,G') at the    1 th omega   0.0000   0.0000 [eV]
       1       2       3       4       5       6       7       8       9
    1  -8.444   1.523  -2.239  -2.239  -2.453  -2.102  -1.861  -1.861  -0.863
        0.000   0.109  -0.665  -0.665  -0.636   0.602   0.769   0.769   0.581

    2   1.523 -10.302  -0.658  -0.658  -0.985  -1.018  -1.570  -1.570  -0.807
       -0.109   0.000   0.140   0.140   0.236  -1.469  -0.332  -0.332  -0.538

  chi0(G,G') at the    2 th omega   0.0000  23.1525 [eV]
       1       2       3       4       5       6       7       8       9
    1  -2.042   0.457  -0.572  -0.572  -0.699  -0.773  -0.369  -0.369  -0.054
        0.000   0.057  -0.176  -0.176  -0.190   0.199   0.147   0.147   0.081

    2   0.457  -3.246  -0.222  -0.222  -0.222  -0.268  -0.248  -0.248  -0.029
       -0.057   0.000   0.030   0.030   0.048  -0.392  -0.082  -0.082  -0.076

  Average fulfillment of the sum rule on Im[epsilon] for q-point   10 :     98.51  [%]


--------------------------------------------------------------------------------
  q-point number 11        q = (-0.250000, 0.125000, 0.000000) [r.l.u.]
--------------------------------------------------------------------------------
  chi0(G,G') at the    1 th omega   0.0000   0.0000 [eV]
       1       2       3       4       5       6       7       8       9
    1  -6.320   1.315  -1.762  -1.762  -2.103  -1.911  -1.447  -1.447  -0.056
        0.000   0.080  -0.527  -0.527  -0.510   0.451   0.550   0.550   0.291

    2   1.315 -11.205  -0.722  -0.722  -1.019  -1.034  -1.750  -1.750  -1.106
       -0.080   0.000   0.125   0.125   0.221  -1.583  -0.376  -0.376  -0.582

  chi0(G,G') at the    2 th omega   0.0000  23.1525 [eV]
       1       2       3       4       5       6       7       8       9
    1  -1.194   0.375  -0.344  -0.344  -0.519  -0.579  -0.220  -0.220   0.128
        0.000   0.047  -0.105  -0.105  -0.130   0.138   0.085   0.085   0.013

    2   0.375  -4.077  -0.248  -0.248  -0.256  -0.299  -0.362  -0.362  -0.172
       -0.047   0.000   0.025   0.025   0.043  -0.441  -0.104  -0.104  -0.101

  Average fulfillment of the sum rule on Im[epsilon] for q-point   11 :     98.49  [%]


--------------------------------------------------------------------------------
  q-point number 12        q = (-0.125000, 0.125000, 0.000000) [r.l.u.]
--------------------------------------------------------------------------------
  chi0(G,G') at the    1 th omega   0.0000   0.0000 [eV]
       1       2       3       4       5       6       7       8       9
    1  -3.614   0.815  -0.963  -0.963  -1.509  -1.509  -0.963  -0.963   0.815
        0.000   0.023  -0.314  -0.314  -0.320   0.320   0.314   0.314  -0.023

    2   0.815 -11.829  -0.839  -0.839  -1.107  -1.008  -1.917  -1.917  -1.445
       -0.023   0.000   0.081   0.081   0.177  -1.681  -0.395  -0.395  -0.567

  chi0(G,G') at the    2 th omega   0.0000  23.1525 [eV]
       1       2       3       4       5       6       7       8       9
    1  -0.540   0.228  -0.130  -0.130  -0.356  -0.356  -0.130  -0.130   0.228
        0.000   0.028  -0.044  -0.044  -0.079   0.079   0.044   0.044  -0.028

    2   0.228  -4.783  -0.269  -0.269  -0.281  -0.318  -0.476  -0.476  -0.319
       -0.028   0.000   0.015   0.015   0.032  -0.473  -0.120  -0.120  -0.120

  Average fulfillment of the sum rule on Im[epsilon] for q-point   12 :     98.47  [%]


--------------------------------------------------------------------------------
  q-point number 13        q = ( 0.250000, 0.250000, 0.000000) [r.l.u.]
--------------------------------------------------------------------------------
  chi0(G,G') at the    1 th omega   0.0000   0.0000 [eV]
       1       2       3       4       5       6       7       8       9
    1  -5.965  -1.949  -0.266  -0.266  -1.949  -0.266  -1.949  -1.949  -0.266
        0.000  -0.511  -0.263  -0.263  -0.511   0.263   0.511   0.511   0.263

    2  -1.949 -12.065  -1.290  -1.290  -1.138  -1.302  -2.106  -2.106  -1.993
        0.511   0.000  -0.147  -0.147   0.000  -1.406  -0.249  -0.249  -0.342

  chi0(G,G') at the    2 th omega   0.0000  23.1525 [eV]
       1       2       3       4       5       6       7       8       9
    1  -1.027  -0.451   0.076   0.076  -0.451   0.076  -0.451  -0.451   0.076
        0.000  -0.113  -0.019  -0.019  -0.113   0.019   0.113   0.113   0.019

    2  -0.451  -5.943  -0.297  -0.297  -0.302  -0.350  -0.750  -0.750  -0.595
        0.113   0.000  -0.031  -0.031   0.000  -0.435  -0.120  -0.120  -0.115

  Average fulfillment of the sum rule on Im[epsilon] for q-point   13 :     98.49  [%]


--------------------------------------------------------------------------------
  q-point number 14        q = ( 0.375000, 0.250000, 0.000000) [r.l.u.]
--------------------------------------------------------------------------------
  chi0(G,G') at the    1 th omega   0.0000   0.0000 [eV]
       1       2       3       4       5       6       7       8       9
    1  -7.920  -2.267  -0.842  -0.842  -2.120   0.132  -2.311  -2.311  -1.314
        0.000  -0.600  -0.462  -0.462  -0.662   0.241   0.637   0.637   0.507

    2  -2.267 -11.571  -1.212  -1.212  -0.979  -1.299  -2.027  -2.027  -1.925
        0.600   0.000  -0.178  -0.178  -0.057  -1.329  -0.215  -0.215  -0.270

  chi0(G,G') at the    2 th omega   0.0000  23.1525 [eV]
       1       2       3       4       5       6       7       8       9
    1  -1.620  -0.651  -0.011  -0.011  -0.526   0.211  -0.597  -0.597  -0.186
        0.000  -0.165  -0.057  -0.057  -0.151   0.003   0.159   0.159   0.094

    2  -0.651  -6.057  -0.284  -0.284  -0.289  -0.330  -0.795  -0.795  -0.683
        0.165   0.000  -0.044  -0.044  -0.014  -0.404  -0.117  -0.117  -0.107

  Average fulfillment of the sum rule on Im[epsilon] for q-point   14 :     98.50  [%]


--------------------------------------------------------------------------------
  q-point number 15        q = ( 0.500000, 0.250000, 0.000000) [r.l.u.]
--------------------------------------------------------------------------------
  chi0(G,G') at the    1 th omega   0.0000   0.0000 [eV]
       1       2       3       4       5       6       7       8       9
    1  -9.666  -2.382  -1.533  -1.533  -2.231   0.316  -2.586  -2.586  -1.964
        0.000  -0.701  -0.699  -0.699  -0.818   0.236   0.737   0.737   0.665

    2  -2.382 -10.877  -1.010  -1.010  -0.763  -1.258  -1.909  -1.909  -1.785
        0.701   0.000  -0.172  -0.172  -0.093  -1.245  -0.186  -0.186  -0.188

  chi0(G,G') at the    2 th omega   0.0000  23.1525 [eV]
       1       2       3       4       5       6       7       8       9
    1  -2.392  -0.826  -0.173  -0.173  -0.642   0.287  -0.759  -0.759  -0.460
        0.000  -0.220  -0.118  -0.118  -0.203  -0.004   0.214   0.214   0.174

    2  -0.826  -6.038  -0.258  -0.258  -0.266  -0.296  -0.823  -0.823  -0.743
        0.220   0.000  -0.051  -0.051  -0.024  -0.357  -0.111  -0.111  -0.098

  Average fulfillment of the sum rule on Im[epsilon] for q-point   15 :     98.51  [%]


--------------------------------------------------------------------------------
  q-point number 16        q = (-0.375000, 0.250000, 0.000000) [r.l.u.]
--------------------------------------------------------------------------------
  chi0(G,G') at the    1 th omega   0.0000   0.0000 [eV]
       1       2       3       4       5       6       7       8       9
    1 -10.120   0.355  -2.473  -2.473  -2.529  -2.374  -2.369  -2.369  -0.692
        0.000  -0.241  -0.822  -0.822  -0.703   0.718   0.890   0.890   0.556

    2   0.355 -10.880  -0.778  -0.778  -1.024  -1.254  -1.828  -1.828  -0.335
        0.241   0.000   0.087   0.087   0.231  -1.237  -0.169  -0.169  -0.491

  chi0(G,G') at the    2 th omega   0.0000  23.1525 [eV]
       1       2       3       4       5       6       7       8       9
    1  -2.666   0.298  -0.664  -0.664  -0.855  -0.876  -0.579  -0.579   0.029
        0.000   0.005  -0.219  -0.219  -0.236   0.238   0.209   0.209   0.073

    2   0.298  -3.224  -0.232  -0.232  -0.203  -0.281  -0.321  -0.321   0.137
       -0.005   0.000   0.024   0.024   0.056  -0.337  -0.061  -0.061  -0.051

  Average fulfillment of the sum rule on Im[epsilon] for q-point   16 :     98.51  [%]


--------------------------------------------------------------------------------
  q-point number 17        q = (-0.250000, 0.250000, 0.000000) [r.l.u.]
--------------------------------------------------------------------------------
  chi0(G,G') at the    1 th omega   0.0000   0.0000 [eV]
       1       2       3       4       5       6       7       8       9
    1  -8.493   0.259  -2.097  -2.097  -2.320  -2.320  -2.097  -2.097   0.259
        0.000  -0.257  -0.717  -0.717  -0.605   0.605   0.717   0.717   0.257

    2   0.259 -11.659  -0.827  -0.827  -1.020  -1.300  -1.945  -1.945  -0.704
        0.257   0.000   0.082   0.082   0.227  -1.332  -0.223  -0.223  -0.582

  chi0(G,G') at the    2 th omega   0.0000  23.1525 [eV]
       1       2       3       4       5       6       7       8       9
    1  -1.860   0.244  -0.441  -0.441  -0.713  -0.713  -0.441  -0.441   0.244
        0.000  -0.000  -0.150  -0.150  -0.183   0.183   0.150   0.150   0.000

    2   0.244  -4.018  -0.255  -0.255  -0.243  -0.320  -0.418  -0.418  -0.009
        0.000   0.000   0.022   0.022   0.053  -0.390  -0.083  -0.083  -0.079

  Average fulfillment of the sum rule on Im[epsilon] for q-point   17 :     98.50  [%]


--------------------------------------------------------------------------------
  q-point number 18        q = ( 0.375000, 0.375000, 0.000000) [r.l.u.]
--------------------------------------------------------------------------------
  chi0(G,G') at the    1 th omega   0.0000   0.0000 [eV]
       1       2       3       4       5       6       7       8       9
    1  -8.923  -2.389  -1.014  -1.014  -2.389  -1.014  -2.389  -2.389  -1.014
        0.000  -0.696  -0.506  -0.506  -0.696   0.506   0.696   0.696   0.506

    2  -2.389 -11.647  -1.271  -1.271  -0.856  -1.506  -1.987  -1.987  -1.932
        0.696   0.000  -0.159  -0.159  -0.000  -1.091  -0.206  -0.206  -0.248

  chi0(G,G') at the    2 th omega   0.0000  23.1525 [eV]
       1       2       3       4       5       6       7       8       9
    1  -2.051  -0.701  -0.057  -0.057  -0.701  -0.057  -0.701  -0.701  -0.057
        0.000  -0.191  -0.079  -0.079  -0.191   0.079   0.191   0.191   0.079

    2  -0.701  -6.056  -0.294  -0.294  -0.280  -0.378  -0.807  -0.807  -0.618
        0.191   0.000  -0.043  -0.043   0.000  -0.360  -0.107  -0.107  -0.097

  Average fulfillment of the sum rule on Im[epsilon] for q-point   18 :     98.51  [%]


--------------------------------------------------------------------------------
  q-point number 19        q = ( 0.500000, 0.375000, 0.000000) [r.l.u.]
--------------------------------------------------------------------------------
  chi0(G,G') at the    1 th omega   0.0000   0.0000 [eV]
       1       2       3       4       5       6       7       8       9
    1 -10.167  -2.527  -1.536  -1.536  -2.386  -0.795  -2.548  -2.548  -1.828
        0.000  -0.748  -0.669  -0.669  -0.796   0.521   0.766   0.766   0.678

    2  -2.527 -10.973  -1.120  -1.120  -0.712  -1.447  -1.909  -1.909  -1.809
        0.748   0.000  -0.172  -0.172  -0.051  -1.039  -0.187  -0.187  -0.169

  chi0(G,G') at the    2 th omega   0.0000  23.1525 [eV]
       1       2       3       4       5       6       7       8       9
    1  -2.674  -0.857  -0.181  -0.181  -0.785   0.027  -0.826  -0.826  -0.345
        0.000  -0.236  -0.126  -0.126  -0.231   0.072   0.234   0.234   0.163

    2  -0.857  -6.051  -0.268  -0.268  -0.261  -0.345  -0.831  -0.831  -0.694
        0.236   0.000  -0.052  -0.052  -0.011  -0.321  -0.105  -0.105  -0.088

  Average fulfillment of the sum rule on Im[epsilon] for q-point   19 :     98.51  [%]


--------------------------------------------------------------------------------
  q-point number 20        q = (-0.375000, 0.375000, 0.000000) [r.l.u.]
--------------------------------------------------------------------------------
  chi0(G,G') at the    1 th omega   0.0000   0.0000 [eV]
       1       2       3       4       5       6       7       8       9
    1 -11.296  -0.687  -2.652  -2.652  -2.480  -2.480  -2.652  -2.652  -0.687
        0.000  -0.540  -0.963  -0.963  -0.789   0.789   0.963   0.963   0.540

    2  -0.687 -11.266  -0.941  -0.941  -0.903  -1.396  -1.950  -1.950   0.136
        0.540   0.000   0.044   0.044   0.183  -1.000  -0.059  -0.059  -0.333

  chi0(G,G') at the    2 th omega   0.0000  23.1525 [eV]
       1       2       3       4       5       6       7       8       9
    1  -3.383   0.057  -0.784  -0.784  -0.984  -0.984  -0.784  -0.784   0.057
        0.000  -0.070  -0.272  -0.272  -0.282   0.282   0.272   0.272   0.070

    2   0.057  -3.387  -0.254  -0.254  -0.173  -0.297  -0.410  -0.410   0.271
        0.070   0.000   0.017   0.017   0.059  -0.266  -0.038  -0.038  -0.026

  Average fulfillment of the sum rule on Im[epsilon] for q-point   20 :     98.51  [%]


--------------------------------------------------------------------------------
  q-point number 21        q = ( 0.500000, 0.500000, 0.000000) [r.l.u.]
--------------------------------------------------------------------------------
  chi0(G,G') at the    1 th omega   0.0000   0.0000 [eV]
       1       2       3       4       5       6       7       8       9
    1 -10.659  -2.516  -1.660  -1.660  -2.516  -1.660  -2.516  -2.516  -1.660
        0.000  -0.793  -0.703  -0.703  -0.793   0.703   0.793   0.793   0.703

    2  -2.516 -10.977  -1.121  -1.121  -0.625  -1.534  -1.864  -1.864  -1.805
        0.793   0.000  -0.156  -0.156   0.000  -0.834  -0.194  -0.194  -0.153

  chi0(G,G') at the    2 th omega   0.0000  23.1525 [eV]
       1       2       3       4       5       6       7       8       9
    1  -3.137  -0.915  -0.262  -0.262  -0.915  -0.262  -0.915  -0.915  -0.262
        0.000  -0.265  -0.157  -0.157  -0.265   0.157   0.265   0.265   0.157

    2  -0.915  -6.057  -0.278  -0.278  -0.248  -0.392  -0.840  -0.840  -0.639
        0.265   0.000  -0.050  -0.050   0.000  -0.271  -0.096  -0.096  -0.076

  Average fulfillment of the sum rule on Im[epsilon] for q-point   21 :     98.51  [%]


--------------------------------------------------------------------------------
  q-point number 22        q = ( 0.375000, 0.250000, 0.125000) [r.l.u.]
--------------------------------------------------------------------------------
  chi0(G,G') at the    1 th omega   0.0000   0.0000 [eV]
       1       2       3       4       5       6       7       8       9
    1  -6.750  -2.115  -1.256   0.333  -1.944   0.333  -1.944  -2.115  -1.256
        0.000  -0.521  -0.484  -0.180  -0.589   0.180   0.589   0.521   0.484

    2  -2.115 -11.764  -1.271  -1.134  -1.143  -1.242  -2.075  -2.042  -2.008
        0.521   0.000  -0.133  -0.210  -0.064  -1.434  -0.235  -0.245  -0.280

  chi0(G,G') at the    2 th omega   0.0000  23.1525 [eV]
       1       2       3       4       5       6       7       8       9
    1  -1.251  -0.561  -0.163   0.224  -0.407   0.224  -0.407  -0.561  -0.163
        0.000  -0.138  -0.076   0.008  -0.118  -0.008   0.118   0.138   0.076

    2  -0.561  -6.029  -0.302  -0.270  -0.299  -0.328  -0.751  -0.787  -0.683
        0.138   0.000  -0.031  -0.044  -0.015  -0.428  -0.116  -0.124  -0.113

  Average fulfillment of the sum rule on Im[epsilon] for q-point   22 :     98.49  [%]


--------------------------------------------------------------------------------
  q-point number 23        q = ( 0.500000, 0.250000, 0.125000) [r.l.u.]
--------------------------------------------------------------------------------
  chi0(G,G') at the    1 th omega   0.0000   0.0000 [eV]
       1       2       3       4       5       6       7       8       9
    1  -8.825  -2.292  -1.790  -0.586  -2.169   0.582  -2.384  -2.475  -1.951
        0.000  -0.630  -0.706  -0.484  -0.770   0.159   0.723   0.654   0.655

    2  -2.292 -11.158  -1.042  -1.023  -0.917  -1.224  -1.956  -1.932  -1.881
        0.630   0.000  -0.147  -0.204  -0.101  -1.345  -0.192  -0.211  -0.211

  chi0(G,G') at the    2 th omega   0.0000  23.1525 [eV]
       1       2       3       4       5       6       7       8       9
    1  -2.000  -0.752  -0.292   0.067  -0.520   0.323  -0.602  -0.715  -0.419
        0.000  -0.194  -0.130  -0.049  -0.168  -0.019   0.178   0.190   0.151

    2  -0.752  -6.059  -0.280  -0.252  -0.279  -0.300  -0.794  -0.818  -0.745
        0.194   0.000  -0.041  -0.053  -0.026  -0.386  -0.110  -0.119  -0.104

  Average fulfillment of the sum rule on Im[epsilon] for q-point   23 :     98.51  [%]


--------------------------------------------------------------------------------
  q-point number 24        q = (-0.375000, 0.250000, 0.125000) [r.l.u.]
--------------------------------------------------------------------------------
  chi0(G,G') at the    1 th omega   0.0000   0.0000 [eV]
       1       2       3       4       5       6       7       8       9
    1 -10.295   0.648  -2.610  -2.339  -2.618  -2.339  -2.195  -2.320  -1.329
        0.000  -0.153  -0.804  -0.763  -0.730   0.755   0.885   0.921   0.728

    2   0.648 -10.295  -0.987  -0.356  -1.084  -1.169  -1.508  -1.721  -0.597
        0.153   0.000   0.156   0.064   0.234  -1.241  -0.191  -0.225  -0.365

  chi0(G,G') at the    2 th omega   0.0000  23.1525 [eV]
       1       2       3       4       5       6       7       8       9
    1  -2.850   0.357  -0.793  -0.665  -0.870  -0.909  -0.465  -0.664  -0.153
        0.000   0.023  -0.241  -0.227  -0.246   0.251   0.197   0.231   0.126

    2   0.357  -2.850  -0.220  -0.200  -0.197  -0.258  -0.162  -0.313   0.095
       -0.023   0.000   0.037   0.016   0.053  -0.327  -0.046  -0.067  -0.043

  Average fulfillment of the sum rule on Im[epsilon] for q-point   24 :     98.51  [%]


--------------------------------------------------------------------------------
  q-point number 25        q = ( 0.500000, 0.375000, 0.125000) [r.l.u.]
--------------------------------------------------------------------------------
  chi0(G,G') at the    1 th omega   0.0000   0.0000 [eV]
       1       2       3       4       5       6       7       8       9
    1  -9.461  -2.500  -1.734  -0.574  -2.386  -0.574  -2.386  -2.500  -1.734
        0.000  -0.699  -0.656  -0.459  -0.759   0.459   0.759   0.699   0.656

    2  -2.500 -11.291  -1.152  -1.167  -0.863  -1.453  -1.966  -1.946  -1.907
        0.699   0.000  -0.145  -0.205  -0.053  -1.140  -0.190  -0.194  -0.194

  chi0(G,G') at the    2 th omega   0.0000  23.1525 [eV]
       1       2       3       4       5       6       7       8       9
    1  -2.226  -0.771  -0.284   0.095  -0.677   0.095  -0.677  -0.771  -0.284
        0.000  -0.206  -0.135  -0.046  -0.198   0.046   0.198   0.206   0.135

    2  -0.771  -6.066  -0.291  -0.256  -0.276  -0.344  -0.806  -0.824  -0.694
        0.206   0.000  -0.042  -0.052  -0.012  -0.357  -0.104  -0.114  -0.095

  Average fulfillment of the sum rule on Im[epsilon] for q-point   25 :     98.51  [%]


--------------------------------------------------------------------------------
  q-point number 26        q = (-0.375000, 0.375000, 0.125000) [r.l.u.]
--------------------------------------------------------------------------------
  chi0(G,G') at the    1 th omega   0.0000   0.0000 [eV]
       1       2       3       4       5       6       7       8       9
    1 -11.454  -0.459  -2.700  -2.618  -2.570  -2.471  -2.602  -2.599  -1.297
        0.000  -0.466  -0.933  -0.905  -0.786   0.826   0.968   0.996   0.718

    2  -0.459 -10.812  -1.055  -0.594  -1.011  -1.323  -1.780  -1.880  -0.103
        0.466   0.000   0.097   0.026   0.203  -1.007  -0.059  -0.090  -0.215

  chi0(G,G') at the    2 th omega   0.0000  23.1525 [eV]
       1       2       3       4       5       6       7       8       9
    1  -3.472   0.146  -0.885  -0.770  -0.991  -1.000  -0.690  -0.834  -0.111
        0.000  -0.042  -0.285  -0.273  -0.286   0.288   0.264   0.283   0.122

    2   0.146  -2.962  -0.237  -0.218  -0.167  -0.268  -0.274  -0.385   0.237
        0.042   0.000   0.029   0.008   0.057  -0.264  -0.022  -0.049  -0.019

  Average fulfillment of the sum rule on Im[epsilon] for q-point   26 :     98.51  [%]


--------------------------------------------------------------------------------
  q-point number 27        q = (-0.250000, 0.375000, 0.125000) [r.l.u.]
--------------------------------------------------------------------------------
  chi0(G,G') at the    1 th omega   0.0000   0.0000 [eV]
       1       2       3       4       5       6       7       8       9
    1 -10.410  -0.456  -2.517  -2.335  -2.521  -2.521  -2.335  -2.517  -0.456
        0.000  -0.473  -0.873  -0.830  -0.731   0.731   0.830   0.873   0.473

    2  -0.456 -11.699  -1.104  -0.584  -1.027  -1.432  -1.873  -2.004  -0.514
        0.473   0.000   0.100   0.035   0.211  -1.121  -0.120  -0.143  -0.386

  chi0(G,G') at the    2 th omega   0.0000  23.1525 [eV]
       1       2       3       4       5       6       7       8       9
    1  -2.707   0.136  -0.707  -0.541  -0.873  -0.873  -0.541  -0.707   0.136
        0.000  -0.043  -0.227  -0.203  -0.239   0.239   0.203   0.227   0.043

    2   0.136  -3.725  -0.269  -0.236  -0.215  -0.318  -0.360  -0.462   0.117
        0.043   0.000   0.030   0.012   0.058  -0.324  -0.046  -0.069  -0.045

  Average fulfillment of the sum rule on Im[epsilon] for q-point   27 :     98.51  [%]


--------------------------------------------------------------------------------
  q-point number 28        q = (-0.375000, 0.500000, 0.125000) [r.l.u.]
--------------------------------------------------------------------------------
  chi0(G,G') at the    1 th omega   0.0000   0.0000 [eV]
       1       2       3       4       5       6       7       8       9
    1 -12.128  -1.376  -2.743  -2.787  -2.465  -2.465  -2.787  -2.743  -1.376
        0.000  -0.697  -1.033  -1.011  -0.858   0.858   1.011   1.033   0.697

    2  -1.376 -11.097  -1.114  -0.858  -0.762  -1.300  -1.908  -1.920   0.378
        0.697   0.000   0.055  -0.000   0.135  -0.729   0.000  -0.009   0.000

  chi0(G,G') at the    2 th omega   0.0000  23.1525 [eV]
       1       2       3       4       5       6       7       8       9
    1  -4.123  -0.121  -0.990  -0.893  -1.087  -1.087  -0.893  -0.990  -0.121
        0.000  -0.122  -0.335  -0.326  -0.325   0.325   0.326   0.335   0.122

    2  -0.121  -3.265  -0.261  -0.249  -0.130  -0.276  -0.391  -0.466   0.328
        0.122   0.000   0.020  -0.000   0.056  -0.189   0.000  -0.030  -0.000

  Average fulfillment of the sum rule on Im[epsilon] for q-point   28 :     98.51  [%]


--------------------------------------------------------------------------------
  q-point number 29        q = (-0.250000, 0.500000, 0.250000) [r.l.u.]
--------------------------------------------------------------------------------
  chi0(G,G') at the    1 th omega   0.0000   0.0000 [eV]
       1       2       3       4       5       6       7       8       9
    1 -11.780  -1.331  -2.633  -2.619  -2.601  -2.601  -2.619  -2.633  -1.331
        0.000  -0.714  -0.951  -0.920  -0.827   0.827   0.920   0.951   0.714

    2  -1.331 -11.780  -1.164  -0.494  -0.995  -1.480  -1.844  -1.927  -0.509
        0.714   0.000   0.110   0.000   0.188  -0.860   0.000  -0.073   0.000

  chi0(G,G') at the    2 th omega   0.0000  23.1525 [eV]
       1       2       3       4       5       6       7       8       9
    1  -3.620  -0.070  -0.933  -0.684  -1.017  -1.017  -0.684  -0.933  -0.070
        0.000  -0.110  -0.297  -0.267  -0.296   0.296   0.267   0.297   0.110

    2  -0.070  -3.620  -0.269  -0.229  -0.183  -0.313  -0.340  -0.509   0.163
        0.110   0.000   0.036  -0.000   0.059  -0.240   0.000  -0.054   0.000

  Average fulfillment of the sum rule on Im[epsilon] for q-point   29 :     98.51  [%]

================================================================================
== DATASET  2 ==================================================================
-   mpi_nproc: 256, omp_nthreads: -1 (-1 if OMP is not activated)


--- !DatasetInfo
iteration_state: {dtset: 2, }
dimensions: {natom: 2, nkpt: 29, mband: 480, nsppol: 1, nspinor: 1, nspden: 1, mpw: 1700, }
cutoff_energies: {ecut:  40.0, pawecutdg:  -1.0, }
electrons: {nelect:   8.00000000E+00, charge:   0.00000000E+00, occopt:   1.00000000E+00, tsmear:   1.00000000E-02, }
meta: {optdriver: 4, gwcalctyp: 0, }
...

 mkfilename: getwfk from: ../outdata_gs_DS2_WFK

 mkfilename : getscr/=0, take file _SCR from output of DATASET   1.

 Exchange-correlation functional for the present dataset will be:
  GGA: Perdew-Burke-Ernzerhof functional - ixc=11
 Citation for XC functional:
  J.P.Perdew, K.Burke, M.Ernzerhof, PRL 77, 3865 (1996)

 SIGMA: Calculation of the GW corrections 

 Based on a program developped by R.W. Godby, V. Olevano, G. Onida, and L. Reining.
 Incorporated in ABINIT by V. Olevano, G.-M. Rignanese, and M. Torrent.
.Using single precision arithmetic ; gwpc =  4

 Real(R)+Recip(G) space primitive vectors, cartesian coordinates (Bohr,Bohr^-1):
 R(1)=  0.0000000  4.1101543  4.1101543  G(1)= -0.1216499  0.1216499  0.1216499
 R(2)=  4.1101543  0.0000000  4.1101543  G(2)=  0.1216499 -0.1216499  0.1216499
 R(3)=  4.1101543  4.1101543  0.0000000  G(3)=  0.1216499  0.1216499 -0.1216499
 Unit cell volume ucvol=  1.3886871E+02 bohr^3
 Angles (23,13,12)=  6.00000000E+01  6.00000000E+01  6.00000000E+01 degrees
--------------------------------------------------------------------------------

 ==== K-mesh for the wavefunctions ====
 Number of points in the irreducible wedge :    29
 Reduced coordinates and weights : 

     1)     0.00000000E+00  0.00000000E+00  0.00000000E+00       0.00195
     2)     1.25000000E-01  0.00000000E+00  0.00000000E+00       0.01563
     3)     2.50000000E-01  0.00000000E+00  0.00000000E+00       0.01563
     4)     3.75000000E-01  0.00000000E+00  0.00000000E+00       0.01563
     5)     5.00000000E-01  0.00000000E+00  0.00000000E+00       0.00781
     6)     1.25000000E-01  1.25000000E-01  0.00000000E+00       0.01172
     7)     2.50000000E-01  1.25000000E-01  0.00000000E+00       0.04688
     8)     3.75000000E-01  1.25000000E-01  0.00000000E+00       0.04688
     9)     5.00000000E-01  1.25000000E-01  0.00000000E+00       0.04688
    10)    -3.75000000E-01  1.25000000E-01  0.00000000E+00       0.04688
    11)    -2.50000000E-01  1.25000000E-01  0.00000000E+00       0.04688
    12)    -1.25000000E-01  1.25000000E-01  0.00000000E+00       0.02344
    13)     2.50000000E-01  2.50000000E-01  0.00000000E+00       0.01172
    14)     3.75000000E-01  2.50000000E-01  0.00000000E+00       0.04688
    15)     5.00000000E-01  2.50000000E-01  0.00000000E+00       0.04688
    16)    -3.75000000E-01  2.50000000E-01  0.00000000E+00       0.04688
    17)    -2.50000000E-01  2.50000000E-01  0.00000000E+00       0.02344
    18)     3.75000000E-01  3.75000000E-01  0.00000000E+00       0.01172
    19)     5.00000000E-01  3.75000000E-01  0.00000000E+00       0.04688
    20)    -3.75000000E-01  3.75000000E-01  0.00000000E+00       0.02344
    21)     5.00000000E-01  5.00000000E-01  0.00000000E+00       0.00586
    22)     3.75000000E-01  2.50000000E-01  1.25000000E-01       0.04688
    23)     5.00000000E-01  2.50000000E-01  1.25000000E-01       0.09375
    24)    -3.75000000E-01  2.50000000E-01  1.25000000E-01       0.04688
    25)     5.00000000E-01  3.75000000E-01  1.25000000E-01       0.04688
    26)    -3.75000000E-01  3.75000000E-01  1.25000000E-01       0.09375
    27)    -2.50000000E-01  3.75000000E-01  1.25000000E-01       0.04688
    28)    -3.75000000E-01  5.00000000E-01  1.25000000E-01       0.02344
    29)    -2.50000000E-01  5.00000000E-01  2.50000000E-01       0.01172

 Together with 24 symmetry operations and time-reversal symmetry 
 yields   512 points in the full Brillouin Zone.


 ==== Q-mesh for screening function ====
 Number of points in the irreducible wedge :    29
 Reduced coordinates and weights : 

     1)     0.00000000E+00  0.00000000E+00  0.00000000E+00       0.00195
     2)     1.25000000E-01  0.00000000E+00  0.00000000E+00       0.01563
     3)     2.50000000E-01  0.00000000E+00  0.00000000E+00       0.01563
     4)     3.75000000E-01  0.00000000E+00  0.00000000E+00       0.01563
     5)     5.00000000E-01  0.00000000E+00  0.00000000E+00       0.00781
     6)     1.25000000E-01  1.25000000E-01  0.00000000E+00       0.01172
     7)     2.50000000E-01  1.25000000E-01  0.00000000E+00       0.04688
     8)     3.75000000E-01  1.25000000E-01  0.00000000E+00       0.04688
     9)     5.00000000E-01  1.25000000E-01  0.00000000E+00       0.04688
    10)    -3.75000000E-01  1.25000000E-01  0.00000000E+00       0.04688
    11)    -2.50000000E-01  1.25000000E-01  0.00000000E+00       0.04688
    12)    -1.25000000E-01  1.25000000E-01  0.00000000E+00       0.02344
    13)     2.50000000E-01  2.50000000E-01  0.00000000E+00       0.01172
    14)     3.75000000E-01  2.50000000E-01  0.00000000E+00       0.04688
    15)     5.00000000E-01  2.50000000E-01  0.00000000E+00       0.04688
    16)    -3.75000000E-01  2.50000000E-01  0.00000000E+00       0.04688
    17)    -2.50000000E-01  2.50000000E-01  0.00000000E+00       0.02344
    18)     3.75000000E-01  3.75000000E-01  0.00000000E+00       0.01172
    19)     5.00000000E-01  3.75000000E-01  0.00000000E+00       0.04688
    20)    -3.75000000E-01  3.75000000E-01  0.00000000E+00       0.02344
    21)     5.00000000E-01  5.00000000E-01  0.00000000E+00       0.00586
    22)     3.75000000E-01  2.50000000E-01  1.25000000E-01       0.04688
    23)     5.00000000E-01  2.50000000E-01  1.25000000E-01       0.09375
    24)    -3.75000000E-01  2.50000000E-01  1.25000000E-01       0.04688
    25)     5.00000000E-01  3.75000000E-01  1.25000000E-01       0.04688
    26)    -3.75000000E-01  3.75000000E-01  1.25000000E-01       0.09375
    27)    -2.50000000E-01  3.75000000E-01  1.25000000E-01       0.04688
    28)    -3.75000000E-01  5.00000000E-01  1.25000000E-01       0.02344
    29)    -2.50000000E-01  5.00000000E-01  2.50000000E-01       0.01172

 Together with 24 symmetry operations and time-reversal symmetry 
 yields   512 points in the full Brillouin Zone.


 setmesh: FFT mesh size selected  =    36x   36x   36
          total number of points  =        46656

 Number of electrons calculated from density =    8.0000; Expected =    8.0000
 average of density, n =  0.057608
 r_s =    1.6062
 omega_plasma =   23.1525 [eV]


 === KS Band Gaps ===
  >>>> For spin  1
   Minimum direct gap =   4.5589 [eV], located at k-point      :   0.5000  0.5000  0.0000
   Fundamental gap    =   1.3568 [eV], Top of valence bands at :   0.0000  0.0000  0.0000
                                       Bottom of conduction at :   0.5000  0.5000  0.0000
 SIGMA fundamental parameters:
 PLASMON POLE MODEL  1
 number of plane-waves for SigmaX                 1687
 number of plane-waves for SigmaC and W            283
 number of plane-waves for wavefunctions          1687
 number of bands                                   480
 number of independent spin polarizations            1
 number of spinorial components                      1
 number of k-points in IBZ                          29
 number of q-points in IBZ                          29
 number of symmetry operations                      24
 number of k-points in BZ                          512
 number of q-points in BZ                          512
 number of frequencies for dSigma/dE                 9
 frequency step for dSigma/dE [eV]                0.25
 number of omega for Sigma on real axis              0
 max omega for Sigma on real axis  [eV]           0.00
 zcut for avoiding poles [eV]                     0.10

 EPSILON^-1 parameters (SCR file):
 dimension of the eps^-1 matrix on file            283
 dimension of the eps^-1 matrix used               283
 number of plane-waves for wavefunctions          1687
 number of bands                                   480
 number of q-points in IBZ                          29
 number of frequencies                               2
 number of real frequencies                          1
 number of imag frequencies                          1

 matrix elements of self-energy operator (all in [eV])

 Perturbative Calculation

--- !SelfEnergy_ee
iteration_state: {dtset: 2, }
kpoint     : [   0.000,    0.000,    0.000, ]
spin       : 1
KS_gap     :    6.289
QP_gap     :    7.218
Delta_QP_KS:    0.929
data: !SigmaeeData |
     Band     E0 <VxcDFT>   SigX SigC(E0)      Z dSigC/dE  Sig(E)    E-E0       E
        1  -8.563 -12.808 -21.885   7.841   0.642  -0.558 -13.602  -0.794  -9.357
        2   6.889 -14.945 -17.574   1.696   0.792  -0.263 -15.684  -0.740   6.150
        3   6.889 -14.945 -17.574   1.696   0.792  -0.263 -15.684  -0.740   6.150
        4   6.889 -14.945 -17.574   1.696   0.792  -0.263 -15.684  -0.740   6.150
        5  13.178 -13.222  -7.577  -5.406   0.790  -0.266 -13.033   0.189  13.368
        6  14.239 -11.345  -5.859  -5.200   0.806  -0.241 -11.114   0.230  14.469
        7  14.239 -11.345  -5.859  -5.200   0.806  -0.241 -11.114   0.230  14.469
        8  14.239 -11.345  -5.859  -5.200   0.806  -0.241 -11.114   0.230  14.469
...


--- !SelfEnergy_ee
iteration_state: {dtset: 2, }
kpoint     : [   0.500,    0.500,    0.000, ]
spin       : 1
KS_gap     :    4.559
QP_gap     :    5.642
Delta_QP_KS:    1.083
data: !SigmaeeData |
     Band     E0 <VxcDFT>   SigX SigC(E0)      Z dSigC/dE  Sig(E)    E-E0       E
        1  -3.520 -14.356 -22.026   6.110   0.706  -0.416 -15.457  -1.102  -4.622
        2  -0.930 -12.575 -18.228   4.179   0.754  -0.326 -13.687  -1.112  -2.042
        3   3.687 -13.585 -17.439   2.564   0.782  -0.279 -14.594  -1.009   2.679
        4   3.687 -13.585 -17.439   2.564   0.782  -0.279 -14.594  -1.009   2.679
        5   8.246 -10.530  -6.454  -3.985   0.820  -0.219 -10.456   0.074   8.320
        6  11.242 -10.785  -6.005  -4.487   0.823  -0.216 -10.544   0.241  11.483
        7  20.954 -12.824  -4.755  -7.560   0.745  -0.343 -12.445   0.379  21.333
        8  20.954 -12.824  -4.755  -7.560   0.745  -0.343 -12.445   0.379  21.333
...


== END DATASET(S) ==============================================================
================================================================================
  
 -outvars: echo values of variables after computation  --------
            acell      8.2203086781E+00  8.2203086781E+00  8.2203086781E+00 Bohr
              amu      1.20110000E+01  2.80855000E+01
             bdgw           1       8       1       8
           diemac      1.20000000E+01
             ecut      4.00000000E+01 Hartree
          ecuteps      1.20000000E+01 Hartree
         ecutsigx      4.00000000E+01 Hartree
          ecutwfn      4.00000000E+01 Hartree
           etotal1     0.0000000000E+00
           etotal2     0.0000000000E+00
            fcart1     0.0000000000E+00  0.0000000000E+00  0.0000000000E+00
                       0.0000000000E+00  0.0000000000E+00  0.0000000000E+00
            fcart2     0.0000000000E+00  0.0000000000E+00  0.0000000000E+00
                       0.0000000000E+00  0.0000000000E+00  0.0000000000E+00
-          fftalg         312
           getscr1          0
           getscr2         -1
           istwfk        1    0    0    0    1    0    0    0    0    0
                         0    0    0    0    0    0    0    0    0    0
                         1    0    0    0    0    0    0    0    0
              ixc          11
           jdtset        1    2
              kpt      0.00000000E+00  0.00000000E+00  0.00000000E+00
                       1.25000000E-01  0.00000000E+00  0.00000000E+00
                       2.50000000E-01  0.00000000E+00  0.00000000E+00
                       3.75000000E-01  0.00000000E+00  0.00000000E+00
                       5.00000000E-01  0.00000000E+00  0.00000000E+00
                       1.25000000E-01  1.25000000E-01  0.00000000E+00
                       2.50000000E-01  1.25000000E-01  0.00000000E+00
                       3.75000000E-01  1.25000000E-01  0.00000000E+00
                       5.00000000E-01  1.25000000E-01  0.00000000E+00
                      -3.75000000E-01  1.25000000E-01  0.00000000E+00
                      -2.50000000E-01  1.25000000E-01  0.00000000E+00
                      -1.25000000E-01  1.25000000E-01  0.00000000E+00
                       2.50000000E-01  2.50000000E-01  0.00000000E+00
                       3.75000000E-01  2.50000000E-01  0.00000000E+00
                       5.00000000E-01  2.50000000E-01  0.00000000E+00
                      -3.75000000E-01  2.50000000E-01  0.00000000E+00
                      -2.50000000E-01  2.50000000E-01  0.00000000E+00
                       3.75000000E-01  3.75000000E-01  0.00000000E+00
                       5.00000000E-01  3.75000000E-01  0.00000000E+00
                      -3.75000000E-01  3.75000000E-01  0.00000000E+00
                       5.00000000E-01  5.00000000E-01  0.00000000E+00
                       3.75000000E-01  2.50000000E-01  1.25000000E-01
                       5.00000000E-01  2.50000000E-01  1.25000000E-01
                      -3.75000000E-01  2.50000000E-01  1.25000000E-01
                       5.00000000E-01  3.75000000E-01  1.25000000E-01
                      -3.75000000E-01  3.75000000E-01  1.25000000E-01
                      -2.50000000E-01  3.75000000E-01  1.25000000E-01
                      -3.75000000E-01  5.00000000E-01  1.25000000E-01
                      -2.50000000E-01  5.00000000E-01  2.50000000E-01
            kptgw      0.00000000E+00  0.00000000E+00  0.00000000E+00
                       5.00000000E-01  5.00000000E-01  0.00000000E+00
         kptrlatt        8    0    0      0    8    0      0    0    8
          kptrlen      4.65010881E+01
P           mkmem           1
            natom           2
            nband         480
           ndtset           2
            ngfft          36      36      36
             nkpt          29
           nkptgw           2
           npweps         283
          npwsigx        1687
           npwwfn        1687
            nstep          50
             nsym          24
           ntypat           2
              occ      2.000000  2.000000  2.000000  2.000000  0.000000  0.000000
                       0.000000  0.000000  0.000000  0.000000  0.000000  0.000000
                       0.000000  0.000000  0.000000  0.000000  0.000000  0.000000
                       0.000000  0.000000  0.000000  0.000000  0.000000  0.000000
                       0.000000  0.000000  0.000000  0.000000  0.000000  0.000000
                       0.000000  0.000000  0.000000  0.000000  0.000000  0.000000
                       0.000000  0.000000  0.000000  0.000000  0.000000  0.000000
                       0.000000  0.000000  0.000000  0.000000  0.000000  0.000000
                       0.000000  0.000000  0.000000  0.000000  0.000000  0.000000
                       0.000000  0.000000  0.000000  0.000000  0.000000  0.000000
                       0.000000  0.000000  0.000000  0.000000  0.000000  0.000000
                       0.000000  0.000000  0.000000  0.000000  0.000000  0.000000
                       0.000000  0.000000  0.000000  0.000000  0.000000  0.000000
                       0.000000  0.000000  0.000000  0.000000  0.000000  0.000000
                       0.000000  0.000000  0.000000  0.000000  0.000000  0.000000
                       0.000000  0.000000  0.000000  0.000000  0.000000  0.000000
                       0.000000  0.000000  0.000000  0.000000  0.000000  0.000000
                       0.000000  0.000000  0.000000  0.000000  0.000000  0.000000
                       0.000000  0.000000  0.000000  0.000000  0.000000  0.000000
                       0.000000  0.000000  0.000000  0.000000  0.000000  0.000000
                       0.000000  0.000000  0.000000  0.000000  0.000000  0.000000
                       0.000000  0.000000  0.000000  0.000000  0.000000  0.000000
                       0.000000  0.000000  0.000000  0.000000  0.000000  0.000000
                       0.000000  0.000000  0.000000  0.000000  0.000000  0.000000
                       0.000000  0.000000  0.000000  0.000000  0.000000  0.000000
                       0.000000  0.000000  0.000000  0.000000  0.000000  0.000000
                       0.000000  0.000000  0.000000  0.000000  0.000000  0.000000
                       0.000000  0.000000  0.000000  0.000000  0.000000  0.000000
                       0.000000  0.000000  0.000000  0.000000  0.000000  0.000000
                       0.000000  0.000000  0.000000  0.000000  0.000000  0.000000
                       0.000000  0.000000  0.000000  0.000000  0.000000  0.000000
                       0.000000  0.000000  0.000000  0.000000  0.000000  0.000000
                       0.000000  0.000000  0.000000  0.000000  0.000000  0.000000
                       0.000000  0.000000  0.000000  0.000000  0.000000  0.000000
                       0.000000  0.000000  0.000000  0.000000  0.000000  0.000000
                       0.000000  0.000000  0.000000  0.000000  0.000000  0.000000
                       0.000000  0.000000  0.000000  0.000000  0.000000  0.000000
                       0.000000  0.000000  0.000000  0.000000  0.000000  0.000000
                       0.000000  0.000000  0.000000  0.000000  0.000000  0.000000
                       0.000000  0.000000  0.000000  0.000000  0.000000  0.000000
                       0.000000  0.000000  0.000000  0.000000  0.000000  0.000000
                       0.000000  0.000000  0.000000  0.000000  0.000000  0.000000
                       0.000000  0.000000  0.000000  0.000000  0.000000  0.000000
                       0.000000  0.000000  0.000000  0.000000  0.000000  0.000000
                       0.000000  0.000000  0.000000  0.000000  0.000000  0.000000
                       0.000000  0.000000  0.000000  0.000000  0.000000  0.000000
                       0.000000  0.000000  0.000000  0.000000  0.000000  0.000000
                       0.000000  0.000000  0.000000  0.000000  0.000000  0.000000
                       0.000000  0.000000  0.000000  0.000000  0.000000  0.000000
                       0.000000  0.000000  0.000000  0.000000  0.000000  0.000000
                       0.000000  0.000000  0.000000  0.000000  0.000000  0.000000
                       0.000000  0.000000  0.000000  0.000000  0.000000  0.000000
                       0.000000  0.000000  0.000000  0.000000  0.000000  0.000000
                       0.000000  0.000000  0.000000  0.000000  0.000000  0.000000
                       0.000000  0.000000  0.000000  0.000000  0.000000  0.000000
[...]
                       0.000000  0.000000  0.000000  0.000000  0.000000  0.000000
        optdriver1          3
        optdriver2          4
            rprim      0.0000000000E+00  5.0000000000E-01  5.0000000000E-01
                       5.0000000000E-01  0.0000000000E+00  5.0000000000E-01
                       5.0000000000E-01  5.0000000000E-01  0.0000000000E+00
          spgroup         216
           strten1     0.0000000000E+00  0.0000000000E+00  0.0000000000E+00
                       0.0000000000E+00  0.0000000000E+00  0.0000000000E+00
           strten2     0.0000000000E+00  0.0000000000E+00  0.0000000000E+00
                       0.0000000000E+00  0.0000000000E+00  0.0000000000E+00
           symrel      1  0  0   0  1  0   0  0  1       0 -1  1   0 -1  0   1 -1  0
                      -1  0  0  -1  0  1  -1  1  0       0  1 -1   1  0 -1   0  0 -1
                      -1  0  0  -1  1  0  -1  0  1       0 -1  1   1 -1  0   0 -1  0
                       1  0  0   0  0  1   0  1  0       0  1 -1   0  0 -1   1  0 -1
                      -1  0  1  -1  1  0  -1  0  0       0 -1  0   1 -1  0   0 -1  1
                       1  0 -1   0  0 -1   0  1 -1       0  1  0   0  0  1   1  0  0
                       1  0 -1   0  1 -1   0  0 -1       0 -1  0   0 -1  1   1 -1  0
                      -1  0  1  -1  0  0  -1  1  0       0  1  0   1  0  0   0  0  1
                       0  0 -1   0  1 -1   1  0 -1       1 -1  0   0 -1  1   0 -1  0
                       0  0  1   1  0  0   0  1  0      -1  1  0  -1  0  0  -1  0  1
                       0  0  1   0  1  0   1  0  0       1 -1  0   0 -1  0   0 -1  1
                       0  0 -1   1  0 -1   0  1 -1      -1  1  0  -1  0  1  -1  0  0
           timopt          -1
            typat      1  2
              wtk        0.00195    0.01563    0.01563    0.01563    0.00781    0.01172
                         0.04688    0.04688    0.04688    0.04688    0.04688    0.02344
                         0.01172    0.04688    0.04688    0.04688    0.02344    0.01172
                         0.04688    0.02344    0.00586    0.04688    0.09375    0.04688
                         0.04688    0.09375    0.04688    0.02344    0.01172
           xangst      0.0000000000E+00  0.0000000000E+00  0.0000000000E+00
                       1.0875000000E+00  1.0875000000E+00  1.0875000000E+00
            xcart      0.0000000000E+00  0.0000000000E+00  0.0000000000E+00
                       2.0550771695E+00  2.0550771695E+00  2.0550771695E+00
             xred      0.0000000000E+00  0.0000000000E+00  0.0000000000E+00
                       2.5000000000E-01  2.5000000000E-01  2.5000000000E-01
            znucl        6.00000   14.00000

================================================================================

 Test the timer : 
  a combined call timab(*,1,tsec) + timab(*,2,tsec) is 
- CPU time =    6.0963E-07 sec,    Wall time =    6.0976E-07 sec

- Total cpu        time (s,m,h):      12474.5      207.91      3.465
- Total wall clock time (s,m,h):      12548.7      209.15      3.486
-
- For major independent code sections, cpu and wall times (sec),
-  as well as % of the time and number of calls for node 0
-
-<BEGIN_TIMER mpi_nprocs = 256, omp_nthreads = 1, mpi_rank = 0>
- cpu_time =           48.5, wall_time =           49.0
-
- routine                            cpu     %          wall     %      number of calls Gflops    Speedup Efficacity
-                                                                        (-1=no count)
- sigma/=fourdp                     9.576   0.1         9.662   0.1              1      -1.00        0.99       0.99
- wfd_read_wfk                      2.013   0.0         2.026   0.0              2      -1.00        0.99       0.99
- pspini                            0.668   0.0         0.685   0.0              2      -1.00        0.97       0.97
- abinit(2)                         0.143   0.0         0.153   0.0              1      -1.00        0.94       0.94
- timing timab                      0.119   0.0         0.119   0.0             14      -1.00        1.00       1.00
- fourdp                            0.043   0.0         0.065   0.0             34      -1.00        0.66       0.66
- invars2                           0.040   0.0         0.040   0.0              2      -1.00        1.00       1.00
- xc:pot/=fourdp                    0.031   0.0         0.031   0.0              3      -1.00        1.00       1.00
- ewald                             0.020   0.0         0.020   0.0              2      -1.00        0.99       0.99
- mkffnl                            0.013   0.0         0.013   0.0             29      -1.00        1.00       1.00
- mkcore                            0.013   0.0         0.013   0.0              2      -1.00        1.00       1.00
- others (144)                      0.007   0.0         0.007   0.0             -1      -1.00        1.00       1.00
-<END_TIMER>
-
- subtotal                         12.685   0.1        12.834   0.1                                  0.99       0.99

- For major independent code sections, cpu and wall times (sec),
- as well as % of the total time and number of calls 

-<BEGIN_TIMER mpi_nprocs = 256, omp_nthreads = 1, mpi_rank = world>
- cpu_time =       12474.5, wall_time =       12548.7
-
- routine                            cpu     %          wall     %      number of calls Gflops    Speedup Efficacity
-                                                                        (-1=no count)
- sigma/=fourdp                  2415.093  19.4      2441.261  19.5            256      -1.00        0.99       0.99
- wfd_read_wfk                    519.411   4.2       519.685   4.1            512      -1.00        1.00       1.00
- pspini                          169.223   1.4       171.334   1.4            512      -1.00        0.99       0.99
- timing timab                     29.633   0.2        29.636   0.2           3584      -1.00        1.00       1.00
- abinit(2)                        13.284   0.1        13.618   0.1            256      -1.00        0.98       0.98
- fourdp                            9.857   0.1        17.125   0.1           8704      -1.00        0.58       0.58
- invars2                           9.553   0.1         9.556   0.1            512      -1.00        1.00       1.00
- xc:pot/=fourdp                    8.014   0.1         8.034   0.1            768      -1.00        1.00       1.00
- ewald                             5.081   0.0         5.084   0.0            512      -1.00        1.00       1.00
- mkcore                            3.232   0.0         3.233   0.0            512      -1.00        1.00       1.00
- mkffnl                            2.728   0.0         2.716   0.0           7424      -1.00        1.00       1.00
- kpgsph                            1.104   0.0         1.102   0.0          76346      -1.00        1.00       1.00
- symrhg(no FFT)                    0.542   0.0         0.543   0.0            512      -1.00        1.00       1.00
- others (142)                      0.000   0.0         0.000   0.0             -1      -1.00        0.00       0.00
-<END_TIMER>

- subtotal                       3186.757  25.5      3222.929  25.7                                  0.99       0.99

 Partitioning of abinit
- abinit                        12474.525 100.0     12548.709 100.0            256                   0.99       0.99
 
- abinit(1)                        51.664   0.4        59.973   0.5            256                   0.86       0.86
- abinit(2)                        13.284   0.1        13.618   0.1            256                   0.98       0.98
- indefo+macroin+invars2m          10.327   0.1        10.332   0.1            256                   1.00       1.00
- abinit(4)                        58.049   0.5        62.403   0.5            256                   0.93       0.93
- abinit(5)                        34.203   0.3        34.282   0.3            256                   1.00       1.00
- driver                        12331.214  98.9     12393.657  98.8            256                   0.99       0.99
- timing timab                     29.633   0.2        29.636   0.2           3584                   1.00       1.00

- subtotal                      12474.525 100.0     12548.709 100.0                                  0.99       0.99

 Partitioning of driver
- driver                        12331.214  98.9     12393.657  98.8            256                   0.99       0.99
 
- driver(bef. select case)          8.760   0.1        21.516   0.2            512                   0.41       0.41
- screening                      9873.521  79.1      9896.949  78.9            256                   1.00       1.00
- sigma                          2415.264  19.4      2441.432  19.5            256                   0.99       0.99
- (other)                          32.928   0.3        32.971   0.3             -1                   1.00       1.00

- subtotal                      12331.214  98.9     12393.657  98.8                                  0.99       0.99

 Partitioning of screening
- screening                      9873.521  79.1      9896.949  78.9            256                   1.00       1.00
 
- screening(init1)                374.619   3.0       377.312   3.0            256                   0.99       0.99
- screening(wfs)                  354.225   2.8       354.526   2.8            256                   1.00       1.00
- screening(1)                     11.484   0.1        11.491   0.1            256                   1.00       1.00
- screening(density)               49.750   0.4        61.194   0.5            256                   0.81       0.81
- screening(2)                     10.132   0.1        10.161   0.1            256                   1.00       1.00
- screening(cchi0q0)              164.228   1.3       171.258   1.4            256                   0.96       0.96
- screening(cchi0)               8801.185  70.6      8802.885  70.1           7168                   1.00       1.00
- screening(q-loop,end)           106.598   0.9       106.813   0.9           7424                   1.00       1.00

- subtotal                       9872.393  79.1      9895.837  78.9                                  1.00       1.00

 Partitioning of sigma
- sigma                          2415.264  19.4      2441.432  19.5            256                   0.99       0.99
 
- sigma(Init1)                     10.248   0.1        10.253   0.1            512                   1.00       1.00
- setup_sigma                     139.908   1.1       140.241   1.1            256                   1.00       1.00
- sigma(rdkss)                    177.351   1.4       177.395   1.4            256                   1.00       1.00
- sigma(Init2)                      2.840   0.0         2.841   0.0            256                   1.00       1.00
- sigma(make_vhxc)                 31.128   0.2        31.133   0.2            256                   1.00       1.00
- sigma(vHxc_me)                    7.255   0.1         7.334   0.1            256                   0.99       0.99
- sigma(hqp_init)                  49.342   0.4        49.357   0.4            256                   1.00       1.00
- sigma(getW)                      44.482   0.4        63.523   0.5            256                   0.70       0.70
- sigma(calc_sigx_me)             236.176   1.9       236.209   1.9            256                   1.00       1.00
- sigma(calc_sigc_me)            1709.042  13.7      1709.360  13.6            512                   1.00       1.00
- sigma(solve_dyson)                3.847   0.0        10.019   0.1            256                   0.38       0.38

- subtotal                       2411.619  19.3      2437.666  19.4                                  0.99       0.99

 Partitioning of calc_sigc_me
- calc_sigc_me                   1709.042  13.7      1709.360  13.6            512                   1.00       1.00
 
- calc_sigc_me(Init)               43.435   0.3        43.478   0.3            512                   1.00       1.00
- calc_sigc_me(Init q)              6.409   0.1         6.429   0.1          22528                   1.00       1.00
- calc_sigc_me(loop)             1520.091  12.2      1520.241  12.1          22528                   1.00       1.00
- calc_sigc_me(xmpi_sum)          138.130   1.1       138.196   1.1            512                   1.00       1.00

- subtotal                       1708.926  13.7      1709.267  13.6                                  1.00       1.00

 Partitioning of  fourdp (upwards partitioning)
- fourdp                            9.857   0.1        17.125   0.1           8704                   0.58       0.58
 
- fourdp%(other)                    9.527   0.1        16.795   0.1           8192                   0.57       0.57

- subtotal                          9.857   0.1        17.125   0.1                                  0.58       0.58
-
-Synchronisation (=leave_test) and MPI calls 
- communic.MPI                      1.991   0.0         2.016   0.0            256                   0.99       0.99
-
- subtotal                          0.000   0.0         0.000   0.0                                  0.00       0.00

 Additional information
- timana(1)                         0.244   0.0         0.250   0.0            256                   0.98       0.98
- total timab                      30.208   0.2        30.210   0.2       50777658                   1.00       1.00
- xc:fourdp                         4.293   0.0         4.287   0.0           6144                   1.00       1.00
- calc_sigc_me(1)             1972950.817****** 123310266.523******          42240                   0.02       0.02
- calc_sigc_me(rho_tw_g)           48.271   0.4        48.304   0.4          42240                   1.00       1.00
- calc_sigc_me(2)                1468.816  11.8      1469.166  11.7         337920                   1.00       1.00
- calc_sigc_me(sigma_me)            0.548   0.0         0.553   0.0         337920                   0.99       0.99
- cchi0                          8800.925  70.6      8802.664  70.1           7168                   1.00       1.00

 timana : in multi dataset mode, the more detailed analysis is not done.

================================================================================

 Suggested references for the acknowledgment of ABINIT usage.

 The users of ABINIT have little formal obligations with respect to the ABINIT group
 (those specified in the GNU General Public License, http://www.gnu.org/copyleft/gpl.txt).
 However, it is common practice in the scientific literature,
 to acknowledge the efforts of people that have made the research possible.
 In this spirit, please find below suggested citations of work written by ABINIT developers,
 corresponding to implementations inside of ABINIT that you have used in the present run.
 Note also that it will be of great value to readers of publications presenting these results,
 to read papers enabling them to understand the theoretical formalism and details
 of the ABINIT implementation.
 For information on why they are suggested, see also https://docs.abinit.org/theory/acknowledgments.
-
- [1] The Abinit project: Impact, environment and recent developments.
- Computer Phys. Comm. 248, 107042 (2020).
- X.Gonze, B. Amadon, G. Antonius, F.Arnardi, L.Baguet, J.-M.Beuken,
- J.Bieder, F.Bottin, J.Bouchet, E.Bousquet, N.Brouwer, F.Bruneval,
- G.Brunin, T.Cavignac, J.-B. Charraud, Wei Chen, M.Cote, S.Cottenier,
- J.Denier, G.Geneste, Ph.Ghosez, M.Giantomassi, Y.Gillet, O.Gingras,
- D.R.Hamann, G.Hautier, Xu He, N.Helbig, N.Holzwarth, Y.Jia, F.Jollet,
- W.Lafargue-Dit-Hauret, K.Lejaeghere, M.A.L.Marques, A.Martin, C.Martins,
- H.P.C. Miranda, F.Naccarato, K. Persson, G.Petretto, V.Planes, Y.Pouillon,
- S.Prokhorenko, F.Ricci, G.-M.Rignanese, A.H.Romero, M.M.Schmitt, M.Torrent,
- M.J.van Setten, B.Van Troeye, M.J.Verstraete, G.Zerah and J.W.Zwanzig
- Comment: the fifth generic paper describing the ABINIT project.
- Note that a version of this paper, that is not formatted for Computer Phys. Comm. 
- is available at https://www.abinit.org/sites/default/files/ABINIT20.pdf .
- The licence allows the authors to put it on the Web.
- DOI and bibtex: see https://docs.abinit.org/theory/bibliography/#gonze2020
-
- [2] Optimized norm-conserving Vanderbilt pseudopotentials.
- D.R. Hamann, Phys. Rev. B 88, 085117 (2013).
- Comment: Some pseudopotential generated using the ONCVPSP code were used.
- DOI and bibtex: see https://docs.abinit.org/theory/bibliography/#hamann2013
-
- [3] ABINIT: Overview, and focus on selected capabilities
- J. Chem. Phys. 152, 124102 (2020).
- A. Romero, D.C. Allan, B. Amadon, G. Antonius, T. Applencourt, L.Baguet,
- J.Bieder, F.Bottin, J.Bouchet, E.Bousquet, F.Bruneval,
- G.Brunin, D.Caliste, M.Cote,
- J.Denier, C. Dreyer, Ph.Ghosez, M.Giantomassi, Y.Gillet, O.Gingras,
- D.R.Hamann, G.Hautier, F.Jollet, G. Jomard,
- A.Martin, 
- H.P.C. Miranda, F.Naccarato, G.Petretto, N.A. Pike, V.Planes,
- S.Prokhorenko, T. Rangel, F.Ricci, G.-M.Rignanese, M.Royo, M.Stengel, M.Torrent,
- M.J.van Setten, B.Van Troeye, M.J.Verstraete, J.Wiktor, J.W.Zwanziger, and X.Gonze.
- Comment: a global overview of ABINIT, with focus on selected capabilities .
- Note that a version of this paper, that is not formatted for J. Chem. Phys 
- is available at https://www.abinit.org/sites/default/files/ABINIT20_JPC.pdf .
- The licence allows the authors to put it on the Web.
- DOI and bibtex: see https://docs.abinit.org/theory/bibliography/#romero2020
-
- [4] Recent developments in the ABINIT software package.
- Computer Phys. Comm. 205, 106 (2016).
- X.Gonze, F.Jollet, F.Abreu Araujo, D.Adams, B.Amadon, T.Applencourt,
- C.Audouze, J.-M.Beuken, J.Bieder, A.Bokhanchuk, E.Bousquet, F.Bruneval
- D.Caliste, M.Cote, F.Dahm, F.Da Pieve, M.Delaveau, M.Di Gennaro,
- B.Dorado, C.Espejo, G.Geneste, L.Genovese, A.Gerossier, M.Giantomassi,
- Y.Gillet, D.R.Hamann, L.He, G.Jomard, J.Laflamme Janssen, S.Le Roux,
- A.Levitt, A.Lherbier, F.Liu, I.Lukacevic, A.Martin, C.Martins,
- M.J.T.Oliveira, S.Ponce, Y.Pouillon, T.Rangel, G.-M.Rignanese,
- A.H.Romero, B.Rousseau, O.Rubel, A.A.Shukri, M.Stankovski, M.Torrent,
- M.J.Van Setten, B.Van Troeye, M.J.Verstraete, D.Waroquier, J.Wiktor,
- B.Xu, A.Zhou, J.W.Zwanziger.
- Comment: the fourth generic paper describing the ABINIT project.
- Note that a version of this paper, that is not formatted for Computer Phys. Comm. 
- is available at https://www.abinit.org/sites/default/files/ABINIT16.pdf .
- The licence allows the authors to put it on the Web.
- DOI and bibtex: see https://docs.abinit.org/theory/bibliography/#gonze2016
-
- And optionally:
-
- [5] ABINIT: First-principles approach of materials and nanosystem properties.
- Computer Phys. Comm. 180, 2582-2615 (2009).
- X. Gonze, B. Amadon, P.-M. Anglade, J.-M. Beuken, F. Bottin, P. Boulanger, F. Bruneval,
- D. Caliste, R. Caracas, M. Cote, T. Deutsch, L. Genovese, Ph. Ghosez, M. Giantomassi
- S. Goedecker, D.R. Hamann, P. Hermet, F. Jollet, G. Jomard, S. Leroux, M. Mancini, S. Mazevet,
- M.J.T. Oliveira, G. Onida, Y. Pouillon, T. Rangel, G.-M. Rignanese, D. Sangalli, R. Shaltaf,
- M. Torrent, M.J. Verstraete, G. Zerah, J.W. Zwanziger
- Comment: the third generic paper describing the ABINIT project.
- Note that a version of this paper, that is not formatted for Computer Phys. Comm. 
- is available at https://www.abinit.org/sites/default/files/ABINIT_CPC_v10.pdf .
- The licence allows the authors to put it on the Web.
- DOI and bibtex: see https://docs.abinit.org/theory/bibliography/#gonze2009
-
- Proc.   0 individual time (sec): cpu=         48.5  wall=         49.1

================================================================================

 Calculation completed.
.Delivered   0 WARNINGs and   0 COMMENTs to log file.
+Overall time at end (sec) : cpu=      12485.2  wall=      12559.4
