
.Version 9.9.2 of ABINIT 
.(MPI version, prepared for a x86_64_linux_gnu11.2 computer) 

.Copyright (C) 1998-2022 ABINIT group . 
 ABINIT comes with ABSOLUTELY NO WARRANTY.
 It is free software, and you are welcome to redistribute it
 under certain conditions (GNU General Public License,
 see ~abinit/COPYING or http://www.gnu.org/copyleft/gpl.txt).

 ABINIT is a project of the Universite Catholique de Louvain,
 Corning Inc. and other collaborators, see ~abinit/doc/developers/contributors.txt .
 Please read https://docs.abinit.org/theory/acknowledgments for suggested
 acknowledgments of the ABINIT effort.
 For more information, see https://www.abinit.org .

.Starting date : Fri 17 Feb 2023.
- ( at 01h16 )
  
- input  file    -> run.abi
- output file    -> run.abo
- root for input  files -> ../indata_ac
- root for output files -> outdata_ac


 DATASET    1 : space group F-4 3 m (#216); Bravais cF (face-center cubic)
================================================================================
 Values of the parameters that define the memory need for DATASET  1.
     intxc =       0    ionmov =       0      iscf =       7    lmnmax =       6
     lnmax =       6     mgfft =      48  mpssoang =       3    mqgrid =    3001
     natom =       2  nloc_mem =       1    nspden =       1   nspinor =       1
    nsppol =       1      nsym =      24    n1xccc =    2501    ntypat =       2
    occopt =       1   xclevel =       2
-    mband =         480        mffmem =           1         mkmem =           1
       mpw =        4405          nfft =      110592          nkpt =          29
================================================================================
P This job should need less than                      76.069 Mbytes of memory.
  Rough estimation (10% accuracy) of disk space for files :
_ WF disk file :    935.634 Mbytes ; DEN or POT disk file :      0.846 Mbytes.
================================================================================


 DATASET    2 : space group F-4 3 m (#216); Bravais cF (face-center cubic)
================================================================================
 Values of the parameters that define the memory need for DATASET  2.
     intxc =       0    ionmov =       0      iscf =       7    lmnmax =       6
     lnmax =       6     mgfft =      48  mpssoang =       3    mqgrid =    3001
     natom =       2  nloc_mem =       1    nspden =       1   nspinor =       1
    nsppol =       1      nsym =      24    n1xccc =    2501    ntypat =       2
    occopt =       1   xclevel =       2
-    mband =         480        mffmem =           1         mkmem =           1
       mpw =        4405          nfft =      110592          nkpt =          29
================================================================================
P This job should need less than                      76.069 Mbytes of memory.
  Rough estimation (10% accuracy) of disk space for files :
_ WF disk file :    935.634 Mbytes ; DEN or POT disk file :      0.846 Mbytes.
================================================================================

--------------------------------------------------------------------------------
------------- Echo of variables that govern the present computation ------------
--------------------------------------------------------------------------------
-
- outvars: echo of selected default values                                      
-   iomode0 =  0 , fftalg0 =312 , wfoptalg0 =  0
-
- outvars: echo of global parameters not present in the input file              
-  max_nthreads =    0
-
 -outvars: echo values of preprocessed input variables --------
            acell      1.0673173199E+01  1.0673173199E+01  1.0673173199E+01 Bohr
              amu      6.97230000E+01  7.49215900E+01
             bdgw          12      26      12      26
           diemac      1.20000000E+01
             ecut      4.50000000E+01 Hartree
          ecuteps      1.20000000E+01 Hartree
         ecutsigx      3.60000000E+01 Hartree
          ecutwfn      4.50000000E+01 Hartree
-          fftalg         312
           getscr1          0
           getscr2         -1
           istwfk        1    0    0    0    1    0    0    0    0    0
                         0    0    0    0    0    0    0    0    0    0
                         1    0    0    0    0    0    0    0    0
              ixc          11
           jdtset        1    2
              kpt      0.00000000E+00  0.00000000E+00  0.00000000E+00
                       1.25000000E-01  0.00000000E+00  0.00000000E+00
                       2.50000000E-01  0.00000000E+00  0.00000000E+00
                       3.75000000E-01  0.00000000E+00  0.00000000E+00
                       5.00000000E-01  0.00000000E+00  0.00000000E+00
                       1.25000000E-01  1.25000000E-01  0.00000000E+00
                       2.50000000E-01  1.25000000E-01  0.00000000E+00
                       3.75000000E-01  1.25000000E-01  0.00000000E+00
                       5.00000000E-01  1.25000000E-01  0.00000000E+00
                      -3.75000000E-01  1.25000000E-01  0.00000000E+00
                      -2.50000000E-01  1.25000000E-01  0.00000000E+00
                      -1.25000000E-01  1.25000000E-01  0.00000000E+00
                       2.50000000E-01  2.50000000E-01  0.00000000E+00
                       3.75000000E-01  2.50000000E-01  0.00000000E+00
                       5.00000000E-01  2.50000000E-01  0.00000000E+00
                      -3.75000000E-01  2.50000000E-01  0.00000000E+00
                      -2.50000000E-01  2.50000000E-01  0.00000000E+00
                       3.75000000E-01  3.75000000E-01  0.00000000E+00
                       5.00000000E-01  3.75000000E-01  0.00000000E+00
                      -3.75000000E-01  3.75000000E-01  0.00000000E+00
                       5.00000000E-01  5.00000000E-01  0.00000000E+00
                       3.75000000E-01  2.50000000E-01  1.25000000E-01
                       5.00000000E-01  2.50000000E-01  1.25000000E-01
                      -3.75000000E-01  2.50000000E-01  1.25000000E-01
                       5.00000000E-01  3.75000000E-01  1.25000000E-01
                      -3.75000000E-01  3.75000000E-01  1.25000000E-01
                      -2.50000000E-01  3.75000000E-01  1.25000000E-01
                      -3.75000000E-01  5.00000000E-01  1.25000000E-01
                      -2.50000000E-01  5.00000000E-01  2.50000000E-01
            kptgw      0.00000000E+00  0.00000000E+00  0.00000000E+00
                       5.00000000E-01  5.00000000E-01  0.00000000E+00
         kptrlatt        8    0    0      0    8    0      0    0    8
          kptrlen      6.03765852E+01
P           mkmem           1
            natom           2
            nband         480
           ndtset           2
            ngfft          48      48      48
             nkpt          29
           nkptgw           2
           npweps         609
          npwsigx        3119
           npwwfn        4381
            nstep          50
             nsym          24
           ntypat           2
              occ      2.000000  2.000000  2.000000  2.000000  2.000000  2.000000
                       2.000000  2.000000  2.000000  2.000000  2.000000  2.000000
                       2.000000  2.000000  0.000000  0.000000  0.000000  0.000000
                       0.000000  0.000000  0.000000  0.000000  0.000000  0.000000
                       0.000000  0.000000  0.000000  0.000000  0.000000  0.000000
                       0.000000  0.000000  0.000000  0.000000  0.000000  0.000000
                       0.000000  0.000000  0.000000  0.000000  0.000000  0.000000
                       0.000000  0.000000  0.000000  0.000000  0.000000  0.000000
                       0.000000  0.000000  0.000000  0.000000  0.000000  0.000000
                       0.000000  0.000000  0.000000  0.000000  0.000000  0.000000
                       0.000000  0.000000  0.000000  0.000000  0.000000  0.000000
                       0.000000  0.000000  0.000000  0.000000  0.000000  0.000000
                       0.000000  0.000000  0.000000  0.000000  0.000000  0.000000
                       0.000000  0.000000  0.000000  0.000000  0.000000  0.000000
                       0.000000  0.000000  0.000000  0.000000  0.000000  0.000000
                       0.000000  0.000000  0.000000  0.000000  0.000000  0.000000
                       0.000000  0.000000  0.000000  0.000000  0.000000  0.000000
                       0.000000  0.000000  0.000000  0.000000  0.000000  0.000000
                       0.000000  0.000000  0.000000  0.000000  0.000000  0.000000
                       0.000000  0.000000  0.000000  0.000000  0.000000  0.000000
                       0.000000  0.000000  0.000000  0.000000  0.000000  0.000000
                       0.000000  0.000000  0.000000  0.000000  0.000000  0.000000
                       0.000000  0.000000  0.000000  0.000000  0.000000  0.000000
                       0.000000  0.000000  0.000000  0.000000  0.000000  0.000000
                       0.000000  0.000000  0.000000  0.000000  0.000000  0.000000
                       0.000000  0.000000  0.000000  0.000000  0.000000  0.000000
                       0.000000  0.000000  0.000000  0.000000  0.000000  0.000000
                       0.000000  0.000000  0.000000  0.000000  0.000000  0.000000
                       0.000000  0.000000  0.000000  0.000000  0.000000  0.000000
                       0.000000  0.000000  0.000000  0.000000  0.000000  0.000000
                       0.000000  0.000000  0.000000  0.000000  0.000000  0.000000
                       0.000000  0.000000  0.000000  0.000000  0.000000  0.000000
                       0.000000  0.000000  0.000000  0.000000  0.000000  0.000000
                       0.000000  0.000000  0.000000  0.000000  0.000000  0.000000
                       0.000000  0.000000  0.000000  0.000000  0.000000  0.000000
                       0.000000  0.000000  0.000000  0.000000  0.000000  0.000000
                       0.000000  0.000000  0.000000  0.000000  0.000000  0.000000
                       0.000000  0.000000  0.000000  0.000000  0.000000  0.000000
                       0.000000  0.000000  0.000000  0.000000  0.000000  0.000000
                       0.000000  0.000000  0.000000  0.000000  0.000000  0.000000
                       0.000000  0.000000  0.000000  0.000000  0.000000  0.000000
                       0.000000  0.000000  0.000000  0.000000  0.000000  0.000000
                       0.000000  0.000000  0.000000  0.000000  0.000000  0.000000
                       0.000000  0.000000  0.000000  0.000000  0.000000  0.000000
                       0.000000  0.000000  0.000000  0.000000  0.000000  0.000000
                       0.000000  0.000000  0.000000  0.000000  0.000000  0.000000
                       0.000000  0.000000  0.000000  0.000000  0.000000  0.000000
                       0.000000  0.000000  0.000000  0.000000  0.000000  0.000000
                       0.000000  0.000000  0.000000  0.000000  0.000000  0.000000
                       0.000000  0.000000  0.000000  0.000000  0.000000  0.000000
                       0.000000  0.000000  0.000000  0.000000  0.000000  0.000000
                       0.000000  0.000000  0.000000  0.000000  0.000000  0.000000
                       0.000000  0.000000  0.000000  0.000000  0.000000  0.000000
                       0.000000  0.000000  0.000000  0.000000  0.000000  0.000000
                       0.000000  0.000000  0.000000  0.000000  0.000000  0.000000
                       0.000000  0.000000  0.000000  0.000000  0.000000  0.000000
                       0.000000  0.000000  0.000000  0.000000  0.000000  0.000000
                       0.000000  0.000000  0.000000  0.000000  0.000000  0.000000
                       0.000000  0.000000  0.000000  0.000000  0.000000  0.000000
                       0.000000  0.000000  0.000000  0.000000  0.000000  0.000000
                       0.000000  0.000000  0.000000  0.000000  0.000000  0.000000
                       0.000000  0.000000  0.000000  0.000000  0.000000  0.000000
                       0.000000  0.000000  0.000000  0.000000  0.000000  0.000000
                       0.000000  0.000000  0.000000  0.000000  0.000000  0.000000
                       0.000000  0.000000  0.000000  0.000000  0.000000  0.000000
                       0.000000  0.000000  0.000000  0.000000  0.000000  0.000000
                       0.000000  0.000000  0.000000  0.000000  0.000000  0.000000
                       0.000000  0.000000  0.000000  0.000000  0.000000  0.000000
                       0.000000  0.000000  0.000000  0.000000  0.000000  0.000000
                       0.000000  0.000000  0.000000  0.000000  0.000000  0.000000
                       0.000000  0.000000  0.000000  0.000000  0.000000  0.000000
                       0.000000  0.000000  0.000000  0.000000  0.000000  0.000000
                       0.000000  0.000000  0.000000  0.000000  0.000000  0.000000
                       0.000000  0.000000  0.000000  0.000000  0.000000  0.000000
                       0.000000  0.000000  0.000000  0.000000  0.000000  0.000000
                       0.000000  0.000000  0.000000  0.000000  0.000000  0.000000
                       0.000000  0.000000  0.000000  0.000000  0.000000  0.000000
                       0.000000  0.000000  0.000000  0.000000  0.000000  0.000000
                       0.000000  0.000000  0.000000  0.000000  0.000000  0.000000
                       0.000000  0.000000  0.000000  0.000000  0.000000  0.000000
        optdriver1          3
        optdriver2          4
            rprim      0.0000000000E+00  5.0000000000E-01  5.0000000000E-01
                       5.0000000000E-01  0.0000000000E+00  5.0000000000E-01
                       5.0000000000E-01  5.0000000000E-01  0.0000000000E+00
          spgroup         216
           symrel      1  0  0   0  1  0   0  0  1       0 -1  1   0 -1  0   1 -1  0
                      -1  0  0  -1  0  1  -1  1  0       0  1 -1   1  0 -1   0  0 -1
                      -1  0  0  -1  1  0  -1  0  1       0 -1  1   1 -1  0   0 -1  0
                       1  0  0   0  0  1   0  1  0       0  1 -1   0  0 -1   1  0 -1
                      -1  0  1  -1  1  0  -1  0  0       0 -1  0   1 -1  0   0 -1  1
                       1  0 -1   0  0 -1   0  1 -1       0  1  0   0  0  1   1  0  0
                       1  0 -1   0  1 -1   0  0 -1       0 -1  0   0 -1  1   1 -1  0
                      -1  0  1  -1  0  0  -1  1  0       0  1  0   1  0  0   0  0  1
                       0  0 -1   0  1 -1   1  0 -1       1 -1  0   0 -1  1   0 -1  0
                       0  0  1   1  0  0   0  1  0      -1  1  0  -1  0  0  -1  0  1
                       0  0  1   0  1  0   1  0  0       1 -1  0   0 -1  0   0 -1  1
                       0  0 -1   1  0 -1   0  1 -1      -1  1  0  -1  0  1  -1  0  0
           timopt          -1
            typat      1  2
              wtk        0.00195    0.01563    0.01563    0.01563    0.00781    0.01172
                         0.04688    0.04688    0.04688    0.04688    0.04688    0.02344
                         0.01172    0.04688    0.04688    0.04688    0.02344    0.01172
                         0.04688    0.02344    0.00586    0.04688    0.09375    0.04688
                         0.04688    0.09375    0.04688    0.02344    0.01172
           xangst      0.0000000000E+00  0.0000000000E+00  0.0000000000E+00
                       1.4120000000E+00  1.4120000000E+00  1.4120000000E+00
            xcart      0.0000000000E+00  0.0000000000E+00  0.0000000000E+00
                       2.6682932996E+00  2.6682932996E+00  2.6682932996E+00
             xred      0.0000000000E+00  0.0000000000E+00  0.0000000000E+00
                       2.5000000000E-01  2.5000000000E-01  2.5000000000E-01
            znucl       31.00000   33.00000

================================================================================

 chkinp: Checking input parameters for consistency, jdtset=   1.

 chkinp: Checking input parameters for consistency, jdtset=   2.

================================================================================
== DATASET  1 ==================================================================
-   mpi_nproc: 256, omp_nthreads: -1 (-1 if OMP is not activated)


--- !DatasetInfo
iteration_state: {dtset: 1, }
dimensions: {natom: 2, nkpt: 29, mband: 480, nsppol: 1, nspinor: 1, nspden: 1, mpw: 4405, }
cutoff_energies: {ecut:  45.0, pawecutdg:  -1.0, }
electrons: {nelect:   2.80000000E+01, charge:   0.00000000E+00, occopt:   1.00000000E+00, tsmear:   1.00000000E-02, }
meta: {optdriver: 3, gwcalctyp: 0, }
...

 mkfilename: getwfk from: ../outdata_gs_DS2_WFK

 Exchange-correlation functional for the present dataset will be:
  GGA: Perdew-Burke-Ernzerhof functional - ixc=11
 Citation for XC functional:
  J.P.Perdew, K.Burke, M.Ernzerhof, PRL 77, 3865 (1996)

 SCREENING: Calculation of the susceptibility and dielectric matrices 

 Based on a program developped by R.W. Godby, V. Olevano, G. Onida, and L. Reining.
 Incorporated in ABINIT by V. Olevano, G.-M. Rignanese, and M. Torrent.
.Using single precision arithmetic ; gwpc =  4

 Real(R)+Recip(G) space primitive vectors, cartesian coordinates (Bohr,Bohr^-1):
 R(1)=  0.0000000  5.3365866  5.3365866  G(1)= -0.0936928  0.0936928  0.0936928
 R(2)=  5.3365866  0.0000000  5.3365866  G(2)=  0.0936928 -0.0936928  0.0936928
 R(3)=  5.3365866  5.3365866  0.0000000  G(3)=  0.0936928  0.0936928 -0.0936928
 Unit cell volume ucvol=  3.0396297E+02 bohr^3
 Angles (23,13,12)=  6.00000000E+01  6.00000000E+01  6.00000000E+01 degrees

--- Pseudopotential description ------------------------------------------------
- pspini: atom type   1  psp file is ../Ga.psp8
- pspatm: opening atomic psp file    ../Ga.psp8
- Ga    ONCVPSP-3.2.3.1  r_core=   1.66857   1.75011   1.90252
- 31.00000  13.00000    170504                znucl, zion, pspdat
    8   11    2    4       600   0.00000      pspcod,pspxc,lmax,lloc,mmax,r2well
    5.99000000000000    5.00000000000000    0.00000000000000   rchrg,fchrg,qchrg
     nproj     2     2     2
     extension_switch     1
  pspatm : epsatm=   24.69408336
         --- l  ekb(1:nproj) -->
             0    7.029782    1.144675
             1    6.805229    1.288163
             2   -8.378254   -2.820764
 pspatm: atomic psp has been read  and splines computed

- pspini: atom type   2  psp file is ../As.psp8
- pspatm: opening atomic psp file    ../As.psp8
- As    ONCVPSP-3.2.3.1  r_core=   1.76603   1.70395   1.80867
- 33.00000  15.00000    170703                znucl, zion, pspdat
    8   11    2    4       600   0.00000      pspcod,pspxc,lmax,lloc,mmax,r2well
    5.99000000000000    5.00000000000000    0.00000000000000   rchrg,fchrg,qchrg
     nproj     2     2     2
     extension_switch     1
  pspatm : epsatm=   28.90894586
         --- l  ekb(1:nproj) -->
             0    8.305110    0.874814
             1    4.929784    0.754498
             2  -10.035573   -4.078419
 pspatm: atomic psp has been read  and splines computed

   1.50088482E+03                                ecore*ucvol(ha*bohr**3)
--------------------------------------------------------------------------------

 ==== K-mesh for the wavefunctions ====
 Number of points in the irreducible wedge :    29
 Reduced coordinates and weights : 

     1)     0.00000000E+00  0.00000000E+00  0.00000000E+00       0.00195
     2)     1.25000000E-01  0.00000000E+00  0.00000000E+00       0.01563
     3)     2.50000000E-01  0.00000000E+00  0.00000000E+00       0.01563
     4)     3.75000000E-01  0.00000000E+00  0.00000000E+00       0.01563
     5)     5.00000000E-01  0.00000000E+00  0.00000000E+00       0.00781
     6)     1.25000000E-01  1.25000000E-01  0.00000000E+00       0.01172
     7)     2.50000000E-01  1.25000000E-01  0.00000000E+00       0.04688
     8)     3.75000000E-01  1.25000000E-01  0.00000000E+00       0.04688
     9)     5.00000000E-01  1.25000000E-01  0.00000000E+00       0.04688
    10)    -3.75000000E-01  1.25000000E-01  0.00000000E+00       0.04688
    11)    -2.50000000E-01  1.25000000E-01  0.00000000E+00       0.04688
    12)    -1.25000000E-01  1.25000000E-01  0.00000000E+00       0.02344
    13)     2.50000000E-01  2.50000000E-01  0.00000000E+00       0.01172
    14)     3.75000000E-01  2.50000000E-01  0.00000000E+00       0.04688
    15)     5.00000000E-01  2.50000000E-01  0.00000000E+00       0.04688
    16)    -3.75000000E-01  2.50000000E-01  0.00000000E+00       0.04688
    17)    -2.50000000E-01  2.50000000E-01  0.00000000E+00       0.02344
    18)     3.75000000E-01  3.75000000E-01  0.00000000E+00       0.01172
    19)     5.00000000E-01  3.75000000E-01  0.00000000E+00       0.04688
    20)    -3.75000000E-01  3.75000000E-01  0.00000000E+00       0.02344
    21)     5.00000000E-01  5.00000000E-01  0.00000000E+00       0.00586
    22)     3.75000000E-01  2.50000000E-01  1.25000000E-01       0.04688
    23)     5.00000000E-01  2.50000000E-01  1.25000000E-01       0.09375
    24)    -3.75000000E-01  2.50000000E-01  1.25000000E-01       0.04688
    25)     5.00000000E-01  3.75000000E-01  1.25000000E-01       0.04688
    26)    -3.75000000E-01  3.75000000E-01  1.25000000E-01       0.09375
    27)    -2.50000000E-01  3.75000000E-01  1.25000000E-01       0.04688
    28)    -3.75000000E-01  5.00000000E-01  1.25000000E-01       0.02344
    29)    -2.50000000E-01  5.00000000E-01  2.50000000E-01       0.01172

 Together with 24 symmetry operations and time-reversal symmetry 
 yields   512 points in the full Brillouin Zone.


 ==== Q-mesh for the screening function ====
 Number of points in the irreducible wedge :    29
 Reduced coordinates and weights : 

     1)     0.00000000E+00  0.00000000E+00  0.00000000E+00       0.00195
     2)     1.25000000E-01  0.00000000E+00  0.00000000E+00       0.01563
     3)     2.50000000E-01  0.00000000E+00  0.00000000E+00       0.01563
     4)     3.75000000E-01  0.00000000E+00  0.00000000E+00       0.01563
     5)     5.00000000E-01  0.00000000E+00  0.00000000E+00       0.00781
     6)     1.25000000E-01  1.25000000E-01  0.00000000E+00       0.01172
     7)     2.50000000E-01  1.25000000E-01  0.00000000E+00       0.04688
     8)     3.75000000E-01  1.25000000E-01  0.00000000E+00       0.04688
     9)     5.00000000E-01  1.25000000E-01  0.00000000E+00       0.04688
    10)    -3.75000000E-01  1.25000000E-01  0.00000000E+00       0.04688
    11)    -2.50000000E-01  1.25000000E-01  0.00000000E+00       0.04688
    12)    -1.25000000E-01  1.25000000E-01  0.00000000E+00       0.02344
    13)     2.50000000E-01  2.50000000E-01  0.00000000E+00       0.01172
    14)     3.75000000E-01  2.50000000E-01  0.00000000E+00       0.04688
    15)     5.00000000E-01  2.50000000E-01  0.00000000E+00       0.04688
    16)    -3.75000000E-01  2.50000000E-01  0.00000000E+00       0.04688
    17)    -2.50000000E-01  2.50000000E-01  0.00000000E+00       0.02344
    18)     3.75000000E-01  3.75000000E-01  0.00000000E+00       0.01172
    19)     5.00000000E-01  3.75000000E-01  0.00000000E+00       0.04688
    20)    -3.75000000E-01  3.75000000E-01  0.00000000E+00       0.02344
    21)     5.00000000E-01  5.00000000E-01  0.00000000E+00       0.00586
    22)     3.75000000E-01  2.50000000E-01  1.25000000E-01       0.04688
    23)     5.00000000E-01  2.50000000E-01  1.25000000E-01       0.09375
    24)    -3.75000000E-01  2.50000000E-01  1.25000000E-01       0.04688
    25)     5.00000000E-01  3.75000000E-01  1.25000000E-01       0.04688
    26)    -3.75000000E-01  3.75000000E-01  1.25000000E-01       0.09375
    27)    -2.50000000E-01  3.75000000E-01  1.25000000E-01       0.04688
    28)    -3.75000000E-01  5.00000000E-01  1.25000000E-01       0.02344
    29)    -2.50000000E-01  5.00000000E-01  2.50000000E-01       0.01172

 Together with 24 symmetry operations and time-reversal symmetry 
 yields   512 points in the full Brillouin Zone.


 setmesh: FFT mesh size selected  =    36x   36x   36
          total number of points  =        46656


- screening: taking advantage of time-reversal symmetry 
- Maximum band index for partially occupied states nbvw = 14
- Remaining bands to be divided among processors   nbcw = 466
- Number of bands treated by each node ~1

 Number of electrons calculated from density =   28.0000; Expected =   28.0000
 average of density, n =  0.092116
 r_s =    1.3736
 omega_plasma =   29.2768 [eV]


 calculating chi0 at frequencies [eV] :
  1    0.000000E+00    0.000000E+00
  2    0.000000E+00    2.927684E+01


--------------------------------------------------------------------------------
  q-point number  1        q = ( 0.000000, 0.000000, 0.000000) [r.l.u.]
--------------------------------------------------------------------------------
  chi0(G,G') at the    1 th omega   0.0000   0.0000 [eV]
       1       2       3       4       5       6       7       8       9
    1  -0.000   0.000  -0.000   0.000  -0.000  -0.000   0.000  -0.000   0.000
        0.000   0.000  -0.000   0.000  -0.000   0.000  -0.000   0.000  -0.000

    2   0.000 -19.807   0.047   0.047   0.047  -0.339   0.665   0.665   0.665
       -0.000   0.000  -0.000  -0.000   0.000  -3.416  -0.552  -0.552  -0.552

  chi0(G,G') at the    2 th omega   0.0000  29.2768 [eV]
       1       2       3       4       5       6       7       8       9
    1  -0.000   0.000  -0.000   0.000  -0.000  -0.000   0.000  -0.000   0.000
       -0.000   0.000  -0.000   0.000  -0.000   0.000  -0.000   0.000  -0.000

    2   0.000  -6.464   0.532   0.532   0.532   0.319  -0.044  -0.044  -0.044
       -0.000   0.000   0.000  -0.000  -0.000  -0.262  -0.054  -0.054  -0.054

 For q-point:  0.000010 0.000020 0.000030
  dielectric constant =  26.9715
  dielectric constant without local fields =  28.3607

  Average fulfillment of the sum rule on Im[epsilon] for q-point    1 :    146.25  [%]
  Heads and wings of the symmetrical epsilon^-1(G,G') 

   Upper and lower wings at the    1 th omega   0.0000   0.0000 [eV]
       1       2       3       4       5       6       7       8       9
      0.037   0.001  -0.004   0.004  -0.001  -0.001   0.004  -0.004   0.001
      0.000   0.003  -0.010   0.010  -0.003   0.003  -0.010   0.010  -0.003
       1       2       3       4       5       6       7       8       9
      0.037   0.001  -0.004   0.004  -0.001  -0.001   0.004  -0.004   0.001
      0.000  -0.003   0.010  -0.010   0.003  -0.003   0.010  -0.010   0.003


   Upper and lower wings at the    2 th omega   0.0000  29.2768 [eV]
       1       2       3       4       5       6       7       8       9
      0.738   0.010  -0.031   0.031  -0.010  -0.010   0.031  -0.031   0.010
      0.000   0.012  -0.035   0.035  -0.012   0.012  -0.035   0.035  -0.012
       1       2       3       4       5       6       7       8       9
      0.738   0.010  -0.031   0.031  -0.010  -0.010   0.031  -0.031   0.010
      0.000  -0.012   0.035  -0.035   0.012  -0.012   0.035  -0.035   0.012




--------------------------------------------------------------------------------
  q-point number  2        q = ( 0.125000, 0.000000, 0.000000) [r.l.u.]
--------------------------------------------------------------------------------
  chi0(G,G') at the    1 th omega   0.0000   0.0000 [eV]
       1       2       3       4       5       6       7       8       9
    1  -3.554  -0.839  -0.133  -0.133  -0.133   0.703  -0.596  -0.596  -0.596
        0.000  -1.590  -0.313  -0.313  -0.313  -1.897   1.350   1.350   1.350

    2  -0.839 -20.100  -0.465  -0.465  -0.465  -0.239   0.477   0.477   0.477
        1.590   0.000   0.144   0.144   0.144  -3.316  -0.317  -0.317  -0.317

  chi0(G,G') at the    2 th omega   0.0000  29.2768 [eV]
       1       2       3       4       5       6       7       8       9
    1  -0.154  -0.285   0.050   0.050   0.050   0.239  -0.124  -0.124  -0.124
        0.000  -0.294   0.054   0.054   0.054  -0.252   0.128   0.128   0.128

    2  -0.285  -7.422   0.305   0.305   0.305   0.313  -0.064  -0.064  -0.064
        0.294   0.000   0.002   0.002   0.002  -0.257  -0.048  -0.048  -0.048

  Average fulfillment of the sum rule on Im[epsilon] for q-point    2 :    182.56  [%]


--------------------------------------------------------------------------------
  q-point number  3        q = ( 0.250000, 0.000000, 0.000000) [r.l.u.]
--------------------------------------------------------------------------------
  chi0(G,G') at the    1 th omega   0.0000   0.0000 [eV]
       1       2       3       4       5       6       7       8       9
    1  -8.541  -1.423  -0.665  -0.665  -0.665   1.049  -1.220  -1.220  -1.220
        0.000  -2.195  -1.329  -1.329  -1.329  -2.985   2.493   2.493   2.493

    2  -1.423 -20.329  -0.683  -0.683  -0.683  -0.077   0.143   0.143   0.143
        2.195   0.000   0.228   0.228   0.228  -3.212  -0.171  -0.171  -0.171

  chi0(G,G') at the    2 th omega   0.0000  29.2768 [eV]
       1       2       3       4       5       6       7       8       9
    1  -0.602  -0.601   0.024   0.024   0.024   0.419  -0.310  -0.310  -0.310
        0.000  -0.614   0.028   0.028   0.028  -0.444   0.317   0.317   0.317

    2  -0.601  -8.266   0.035   0.035   0.035   0.296  -0.087  -0.087  -0.087
        0.614   0.000   0.004   0.004   0.004  -0.243  -0.040  -0.040  -0.040

  Average fulfillment of the sum rule on Im[epsilon] for q-point    3 :    171.91  [%]


--------------------------------------------------------------------------------
  q-point number  4        q = ( 0.375000, 0.000000, 0.000000) [r.l.u.]
--------------------------------------------------------------------------------
  chi0(G,G') at the    1 th omega   0.0000   0.0000 [eV]
       1       2       3       4       5       6       7       8       9
    1 -11.924  -1.978  -1.205  -1.205  -1.205   1.203  -1.696  -1.696  -1.696
        0.000  -2.507  -2.113  -2.113  -2.113  -3.482   3.027   3.027   3.027

    2  -1.978 -20.478  -0.730  -0.730  -0.730   0.061  -0.118  -0.118  -0.118
        2.507   0.000   0.245   0.245   0.245  -3.141  -0.028  -0.028  -0.028

  chi0(G,G') at the    2 th omega   0.0000  29.2768 [eV]
       1       2       3       4       5       6       7       8       9
    1  -1.306  -0.932  -0.077  -0.077  -0.077   0.531  -0.547  -0.547  -0.547
        0.000  -0.941  -0.073  -0.073  -0.073  -0.565   0.554   0.554   0.554

    2  -0.932  -8.976  -0.265  -0.265  -0.265   0.267  -0.109  -0.109  -0.109
        0.941   0.000   0.006   0.006   0.006  -0.219  -0.030  -0.030  -0.030

  Average fulfillment of the sum rule on Im[epsilon] for q-point    4 :    163.58  [%]


--------------------------------------------------------------------------------
  q-point number  5        q = ( 0.500000, 0.000000, 0.000000) [r.l.u.]
--------------------------------------------------------------------------------
  chi0(G,G') at the    1 th omega   0.0000   0.0000 [eV]
       1       2       3       4       5       6       7       8       9
    1 -14.271  -2.607  -1.671  -1.671  -1.671   1.252  -2.137  -2.137  -2.137
        0.000  -2.854  -2.645  -2.645  -2.645  -3.630   3.293   3.293   3.293

    2  -2.607 -20.313  -0.789  -0.789  -0.789   0.180  -0.266  -0.266  -0.266
        2.854   0.000   0.200   0.200   0.200  -3.045   0.063   0.063   0.063

  chi0(G,G') at the    2 th omega   0.0000  29.2768 [eV]
       1       2       3       4       5       6       7       8       9
    1  -2.206  -1.261  -0.244  -0.244  -0.244   0.569  -0.818  -0.818  -0.818
        0.000  -1.261  -0.241  -0.241  -0.241  -0.607   0.821   0.821   0.821

    2  -1.261  -9.540  -0.581  -0.581  -0.581   0.228  -0.127  -0.127  -0.127
        1.261   0.000   0.006   0.006   0.006  -0.187  -0.021  -0.021  -0.021

  Average fulfillment of the sum rule on Im[epsilon] for q-point    5 :    160.68  [%]


--------------------------------------------------------------------------------
  q-point number  6        q = ( 0.125000, 0.125000, 0.000000) [r.l.u.]
--------------------------------------------------------------------------------
  chi0(G,G') at the    1 th omega   0.0000   0.0000 [eV]
       1       2       3       4       5       6       7       8       9
    1  -4.697  -0.867   0.098   0.098  -0.867   0.098  -0.867  -0.867   0.098
        0.000  -1.837   0.282   0.282  -1.837  -0.282   1.837   1.837  -0.282

    2  -0.867 -20.288  -0.198  -0.198  -0.804  -0.002   0.576   0.576   0.654
        1.837   0.000   0.167   0.167   0.000  -3.072  -0.238  -0.238  -0.504

  chi0(G,G') at the    2 th omega   0.0000  29.2768 [eV]
       1       2       3       4       5       6       7       8       9
    1  -0.205  -0.218   0.129   0.129  -0.218   0.129  -0.218  -0.218   0.129
        0.000  -0.225   0.137   0.137  -0.225  -0.137   0.225   0.225  -0.137

    2  -0.218  -7.163   0.485   0.485   0.111   0.308  -0.065  -0.065  -0.046
        0.225   0.000   0.002   0.002  -0.000  -0.254  -0.048  -0.048  -0.051

  Average fulfillment of the sum rule on Im[epsilon] for q-point    6 :    181.09  [%]


--------------------------------------------------------------------------------
  q-point number  7        q = ( 0.250000, 0.125000, 0.000000) [r.l.u.]
--------------------------------------------------------------------------------
  chi0(G,G') at the    1 th omega   0.0000   0.0000 [eV]
       1       2       3       4       5       6       7       8       9
    1  -8.940  -1.464  -0.311  -0.311  -1.148   0.499  -1.380  -1.380  -0.657
        0.000  -2.525  -0.541  -0.541  -2.461  -1.563   2.727   2.727   1.515

    2  -1.464 -20.418  -0.543  -0.543  -0.983   0.122   0.252   0.252   0.333
        2.525   0.000   0.260   0.260   0.097  -2.981  -0.090  -0.090  -0.357

  chi0(G,G') at the    2 th omega   0.0000  29.2768 [eV]
       1       2       3       4       5       6       7       8       9
    1  -0.554  -0.522   0.130   0.130  -0.221   0.328  -0.376  -0.376  -0.051
        0.000  -0.534   0.139   0.139  -0.225  -0.348   0.385   0.385   0.050

    2  -0.522  -8.037   0.222   0.222  -0.127   0.295  -0.087  -0.087  -0.068
        0.534   0.000   0.004   0.004   0.002  -0.243  -0.040  -0.040  -0.043

  Average fulfillment of the sum rule on Im[epsilon] for q-point    7 :    172.97  [%]


--------------------------------------------------------------------------------
  q-point number  8        q = ( 0.375000, 0.125000, 0.000000) [r.l.u.]
--------------------------------------------------------------------------------
  chi0(G,G') at the    1 th omega   0.0000   0.0000 [eV]
       1       2       3       4       5       6       7       8       9
    1 -12.507  -1.951  -0.917  -0.917  -1.516   0.657  -1.847  -1.847  -1.190
        0.000  -2.761  -1.572  -1.572  -2.952  -2.185   3.296   3.296   2.398

    2  -1.951 -20.532  -0.645  -0.645  -1.035   0.237  -0.034  -0.034   0.008
        2.761   0.000   0.292   0.292   0.146  -2.935   0.030   0.030  -0.211

  chi0(G,G') at the    2 th omega   0.0000  29.2768 [eV]
       1       2       3       4       5       6       7       8       9
    1  -1.170  -0.845   0.053   0.053  -0.293   0.462  -0.587  -0.587  -0.290
        0.000  -0.856   0.061   0.061  -0.296  -0.492   0.595   0.595   0.293

    2  -0.845  -8.783  -0.077  -0.077  -0.397   0.270  -0.108  -0.108  -0.092
        0.856   0.000   0.006   0.006   0.004  -0.223  -0.031  -0.031  -0.033

  Average fulfillment of the sum rule on Im[epsilon] for q-point    8 :    164.85  [%]


--------------------------------------------------------------------------------
  q-point number  9        q = ( 0.500000, 0.125000, 0.000000) [r.l.u.]
--------------------------------------------------------------------------------
  chi0(G,G') at the    1 th omega   0.0000   0.0000 [eV]
       1       2       3       4       5       6       7       8       9
    1 -14.897  -2.504  -1.461  -1.461  -1.895   0.706  -2.260  -2.260  -1.670
        0.000  -2.990  -2.310  -2.310  -3.304  -2.406   3.552   3.552   2.854

    2  -2.504 -20.440  -0.698  -0.698  -1.052   0.330  -0.214  -0.214  -0.198
        2.990   0.000   0.259   0.259   0.137  -2.891   0.108   0.108  -0.051

  chi0(G,G') at the    2 th omega   0.0000  29.2768 [eV]
       1       2       3       4       5       6       7       8       9
    1  -2.001  -1.173  -0.096  -0.096  -0.428   0.524  -0.835  -0.835  -0.569
        0.000  -1.176  -0.090  -0.090  -0.430  -0.559   0.839   0.839   0.573

    2  -1.173  -9.389  -0.397  -0.397  -0.686   0.235  -0.126  -0.126  -0.114
        1.176   0.000   0.006   0.006   0.005  -0.194  -0.022  -0.022  -0.024

  Average fulfillment of the sum rule on Im[epsilon] for q-point    9 :    160.76  [%]


--------------------------------------------------------------------------------
  q-point number 10        q = (-0.375000, 0.125000, 0.000000) [r.l.u.]
--------------------------------------------------------------------------------
  chi0(G,G') at the    1 th omega   0.0000   0.0000 [eV]
       1       2       3       4       5       6       7       8       9
    1 -14.176   0.690  -1.793  -1.793  -2.207  -2.300  -1.649  -1.649  -1.033
        0.000   2.363  -3.187  -3.187  -3.410   2.895   3.038   3.038   1.219

    2   0.690 -16.636   0.939   0.939   0.079   0.302   0.897   0.897  -0.084
       -2.363   0.000  -0.306  -0.306  -0.372  -2.917  -0.570  -0.570  -1.170

  chi0(G,G') at the    2 th omega   0.0000  29.2768 [eV]
       1       2       3       4       5       6       7       8       9
    1  -1.703   0.511  -0.569  -0.569  -0.833  -1.064  -0.270  -0.270   0.086
        0.000   0.545  -0.574  -0.574  -0.839   1.070   0.270   0.270  -0.097

    2   0.511  -2.982   0.939   0.939   0.536   0.248  -0.009  -0.009  -0.000
       -0.545   0.000  -0.004  -0.004  -0.007  -0.205  -0.032  -0.032  -0.031

  Average fulfillment of the sum rule on Im[epsilon] for q-point   10 :    161.59  [%]


--------------------------------------------------------------------------------
  q-point number 11        q = (-0.250000, 0.125000, 0.000000) [r.l.u.]
--------------------------------------------------------------------------------
  chi0(G,G') at the    1 th omega   0.0000   0.0000 [eV]
       1       2       3       4       5       6       7       8       9
    1 -11.439   0.605  -1.339  -1.339  -1.783  -1.773  -1.212  -1.212  -0.356
        0.000   2.037  -2.749  -2.749  -3.075   2.682   2.513   2.513   0.170

    2   0.605 -18.042   0.930   0.930   0.078   0.200   0.905   0.905   0.109
       -2.037   0.000  -0.282  -0.282  -0.373  -2.953  -0.629  -0.629  -1.270

  chi0(G,G') at the    2 th omega   0.0000  29.2768 [eV]
       1       2       3       4       5       6       7       8       9
    1  -0.938   0.425  -0.312  -0.312  -0.604  -0.736  -0.151  -0.151   0.216
        0.000   0.452  -0.317  -0.317  -0.614   0.748   0.152   0.152  -0.231

    2   0.425  -4.047   0.933   0.933   0.525   0.280  -0.017  -0.017  -0.005
       -0.452   0.000  -0.004  -0.004  -0.006  -0.231  -0.043  -0.043  -0.043

  Average fulfillment of the sum rule on Im[epsilon] for q-point   11 :    167.22  [%]


--------------------------------------------------------------------------------
  q-point number 12        q = (-0.125000, 0.125000, 0.000000) [r.l.u.]
--------------------------------------------------------------------------------
  chi0(G,G') at the    1 th omega   0.0000   0.0000 [eV]
       1       2       3       4       5       6       7       8       9
    1  -7.337   0.383  -0.789  -0.789  -1.277  -1.277  -0.789  -0.789   0.383
        0.000   1.228  -1.809  -1.809  -2.355   2.355   1.809   1.809  -1.228

    2   0.383 -19.199   0.763   0.763  -0.092   0.073   0.868   0.868   0.348
       -1.228   0.000  -0.179  -0.179  -0.301  -3.013  -0.584  -0.584  -1.161

  chi0(G,G') at the    2 th omega   0.0000  29.2768 [eV]
       1       2       3       4       5       6       7       8       9
    1  -0.406   0.268  -0.101  -0.101  -0.417  -0.417  -0.101  -0.101   0.268
        0.000   0.284  -0.102  -0.102  -0.428   0.428   0.102   0.102  -0.284

    2   0.268  -5.132   0.851   0.851   0.446   0.301  -0.029  -0.029  -0.013
       -0.284   0.000  -0.002  -0.002  -0.005  -0.248  -0.050  -0.050  -0.051

  Average fulfillment of the sum rule on Im[epsilon] for q-point   12 :    175.97  [%]


--------------------------------------------------------------------------------
  q-point number 13        q = ( 0.250000, 0.250000, 0.000000) [r.l.u.]
--------------------------------------------------------------------------------
  chi0(G,G') at the    1 th omega   0.0000   0.0000 [eV]
       1       2       3       4       5       6       7       8       9
    1 -11.102  -1.653  -0.319  -0.319  -1.653  -0.319  -1.653  -1.653  -0.319
        0.000  -3.027  -0.506  -0.506  -3.027   0.506   3.027   3.027   0.506

    2  -1.653 -20.651  -0.476  -0.476  -1.092   0.438   0.304   0.304   0.546
        3.027   0.000   0.277   0.277   0.000  -2.564  -0.052  -0.052  -0.449

  chi0(G,G') at the    2 th omega   0.0000  29.2768 [eV]
       1       2       3       4       5       6       7       8       9
    1  -0.796  -0.504   0.159   0.159  -0.504   0.159  -0.504  -0.504   0.159
        0.000  -0.514   0.171   0.171  -0.514  -0.171   0.514   0.514  -0.171

    2  -0.504  -7.880   0.348   0.348  -0.333   0.277  -0.089  -0.089  -0.051
        0.514   0.000   0.004   0.004  -0.000  -0.232  -0.037  -0.037  -0.042

  Average fulfillment of the sum rule on Im[epsilon] for q-point   13 :    169.11  [%]


--------------------------------------------------------------------------------
  q-point number 14        q = ( 0.375000, 0.250000, 0.000000) [r.l.u.]
--------------------------------------------------------------------------------
  chi0(G,G') at the    1 th omega   0.0000   0.0000 [eV]
       1       2       3       4       5       6       7       8       9
    1 -13.898  -2.117  -0.763  -0.763  -1.836  -0.190  -2.023  -2.023  -0.925
        0.000  -3.236  -1.309  -1.309  -3.288  -0.233   3.423   3.423   1.881

    2  -2.117 -20.642  -0.659  -0.659  -1.197   0.510   0.034   0.034   0.193
        3.236   0.000   0.305   0.305   0.061  -2.537   0.065   0.065  -0.316

  chi0(G,G') at the    2 th omega   0.0000  29.2768 [eV]
       1       2       3       4       5       6       7       8       9
    1  -1.308  -0.813   0.109   0.109  -0.550   0.310  -0.685  -0.685  -0.074
        0.000  -0.822   0.120   0.120  -0.558  -0.331   0.694   0.694   0.071

    2  -0.813  -8.642   0.058   0.058  -0.570   0.256  -0.110  -0.110  -0.075
        0.822   0.000   0.006   0.006   0.002  -0.216  -0.029  -0.029  -0.034

  Average fulfillment of the sum rule on Im[epsilon] for q-point   14 :    163.77  [%]


--------------------------------------------------------------------------------
  q-point number 15        q = ( 0.500000, 0.250000, 0.000000) [r.l.u.]
--------------------------------------------------------------------------------
  chi0(G,G') at the    1 th omega   0.0000   0.0000 [eV]
       1       2       3       4       5       6       7       8       9
    1 -16.224  -2.566  -1.335  -1.335  -2.121  -0.186  -2.406  -2.406  -1.422
        0.000  -3.320  -2.230  -2.230  -3.500  -0.539   3.709   3.709   2.573

    2  -2.566 -20.522  -0.712  -0.712  -1.277   0.562  -0.160  -0.160  -0.081
        3.320   0.000   0.287   0.287   0.080  -2.552   0.133   0.133  -0.155

  chi0(G,G') at the    2 th omega   0.0000  29.2768 [eV]
       1       2       3       4       5       6       7       8       9
    1  -2.045  -1.130  -0.016  -0.016  -0.655   0.393  -0.906  -0.906  -0.356
        0.000  -1.133  -0.007  -0.007  -0.659  -0.421   0.910   0.910   0.356

    2  -1.130  -9.271  -0.258  -0.258  -0.828   0.225  -0.127  -0.127  -0.100
        1.133   0.000   0.006   0.006   0.003  -0.191  -0.022  -0.022  -0.025

  Average fulfillment of the sum rule on Im[epsilon] for q-point   15 :    160.28  [%]


--------------------------------------------------------------------------------
  q-point number 16        q = (-0.375000, 0.250000, 0.000000) [r.l.u.]
--------------------------------------------------------------------------------
  chi0(G,G') at the    1 th omega   0.0000   0.0000 [eV]
       1       2       3       4       5       6       7       8       9
    1 -16.701  -0.213  -2.115  -2.115  -2.610  -2.693  -2.072  -2.072  -0.993
        0.000   0.574  -3.584  -3.584  -3.441   3.297   3.619   3.619   0.829

    2  -0.213 -17.795   0.743   0.743  -0.284   0.596   1.069   1.069  -0.558
       -0.574   0.000  -0.246  -0.246  -0.371  -2.582  -0.266  -0.266  -1.093

  chi0(G,G') at the    2 th omega   0.0000  29.2768 [eV]
       1       2       3       4       5       6       7       8       9
    1  -2.329   0.405  -0.651  -0.651  -1.132  -1.234  -0.512  -0.512   0.187
        0.000   0.434  -0.654  -0.654  -1.132   1.234   0.513   0.513  -0.205

    2   0.405  -2.949   0.949   0.949   0.195   0.212  -0.015  -0.015   0.002
       -0.434   0.000  -0.003  -0.003  -0.008  -0.181  -0.023  -0.023  -0.021

  Average fulfillment of the sum rule on Im[epsilon] for q-point   16 :    159.81  [%]


--------------------------------------------------------------------------------
  q-point number 17        q = (-0.250000, 0.250000, 0.000000) [r.l.u.]
--------------------------------------------------------------------------------
  chi0(G,G') at the    1 th omega   0.0000   0.0000 [eV]
       1       2       3       4       5       6       7       8       9
    1 -14.637  -0.249  -1.688  -1.688  -2.210  -2.210  -1.688  -1.688  -0.249
        0.000   0.392  -3.245  -3.245  -3.206   3.206   3.245   3.245  -0.392

    2  -0.249 -18.920   0.798   0.798  -0.238   0.537   1.045   1.045  -0.256
       -0.392   0.000  -0.243  -0.243  -0.393  -2.580  -0.353  -0.353  -1.309

  chi0(G,G') at the    2 th omega   0.0000  29.2768 [eV]
       1       2       3       4       5       6       7       8       9
    1  -1.530   0.345  -0.381  -0.381  -0.917  -0.917  -0.381  -0.381   0.345
        0.000   0.369  -0.385  -0.385  -0.925   0.925   0.385   0.385  -0.369

    2   0.345  -3.954   0.972   0.972   0.201   0.247  -0.023  -0.023  -0.000
       -0.369   0.000  -0.003  -0.003  -0.007  -0.209  -0.033  -0.033  -0.033

  Average fulfillment of the sum rule on Im[epsilon] for q-point   17 :    162.39  [%]


--------------------------------------------------------------------------------
  q-point number 18        q = ( 0.375000, 0.375000, 0.000000) [r.l.u.]
--------------------------------------------------------------------------------
  chi0(G,G') at the    1 th omega   0.0000   0.0000 [eV]
       1       2       3       4       5       6       7       8       9
    1 -15.143  -2.250  -0.829  -0.829  -2.250  -0.829  -2.250  -2.250  -0.829
        0.000  -3.468  -1.328  -1.328  -3.468   1.328   3.468   3.468   1.328

    2  -2.250 -20.746  -0.620  -0.620  -1.291   0.660   0.043   0.043   0.392
        3.468   0.000   0.324   0.324   0.000  -2.178   0.039   0.039  -0.367

  chi0(G,G') at the    2 th omega   0.0000  29.2768 [eV]
       1       2       3       4       5       6       7       8       9
    1  -1.708  -0.836   0.087   0.087  -0.836   0.087  -0.836  -0.836   0.087
        0.000  -0.842   0.099   0.099  -0.842  -0.099   0.842   0.842  -0.099

    2  -0.836  -8.564   0.132   0.132  -0.774   0.227  -0.113  -0.113  -0.060
        0.842   0.000   0.005   0.005  -0.000  -0.199  -0.025  -0.025  -0.031

  Average fulfillment of the sum rule on Im[epsilon] for q-point   18 :    161.24  [%]


--------------------------------------------------------------------------------
  q-point number 19        q = ( 0.500000, 0.375000, 0.000000) [r.l.u.]
--------------------------------------------------------------------------------
  chi0(G,G') at the    1 th omega   0.0000   0.0000 [eV]
       1       2       3       4       5       6       7       8       9
    1 -16.907  -2.688  -1.252  -1.252  -2.392  -0.874  -2.564  -2.564  -1.321
        0.000  -3.565  -2.035  -2.035  -3.557   0.887   3.674   3.674   2.359

    2  -2.688 -20.553  -0.738  -0.738  -1.451   0.677  -0.121  -0.121   0.073
        3.565   0.000   0.294   0.294   0.032  -2.207   0.115   0.115  -0.212

  chi0(G,G') at the    2 th omega   0.0000  29.2768 [eV]
       1       2       3       4       5       6       7       8       9
    1  -2.335  -1.134  -0.010  -0.010  -0.912   0.188  -1.026  -1.026  -0.189
        0.000  -1.135   0.000   0.000  -0.914  -0.206   1.028   1.028   0.185

    2  -1.134  -9.196  -0.172  -0.172  -1.001   0.200  -0.129  -0.129  -0.086
        1.135   0.000   0.006   0.006   0.001  -0.177  -0.019  -0.019  -0.023

  Average fulfillment of the sum rule on Im[epsilon] for q-point   19 :    159.33  [%]


--------------------------------------------------------------------------------
  q-point number 20        q = (-0.375000, 0.375000, 0.000000) [r.l.u.]
--------------------------------------------------------------------------------
  chi0(G,G') at the    1 th omega   0.0000   0.0000 [eV]
       1       2       3       4       5       6       7       8       9
    1 -18.233  -0.954  -2.467  -2.467  -3.082  -3.082  -2.467  -2.467  -0.954
        0.000  -0.747  -3.871  -3.871  -3.461   3.461   3.871   3.871   0.747

    2  -0.954 -18.454   0.461   0.461  -0.500   0.737   0.994   0.994  -1.001
        0.747   0.000  -0.172  -0.172  -0.293  -2.255  -0.075  -0.075  -0.749

  chi0(G,G') at the    2 th omega   0.0000  29.2768 [eV]
       1       2       3       4       5       6       7       8       9
    1  -3.131   0.221  -0.787  -0.787  -1.430  -1.430  -0.787  -0.787   0.221
        0.000   0.241  -0.785  -0.785  -1.421   1.421   0.785   0.785  -0.241

    2   0.221  -3.137   0.873   0.873  -0.166   0.163  -0.024  -0.024   0.002
       -0.241   0.000  -0.002  -0.002  -0.007  -0.151  -0.013  -0.013  -0.010

  Average fulfillment of the sum rule on Im[epsilon] for q-point   20 :    158.90  [%]


--------------------------------------------------------------------------------
  q-point number 21        q = ( 0.500000, 0.500000, 0.000000) [r.l.u.]
--------------------------------------------------------------------------------
  chi0(G,G') at the    1 th omega   0.0000   0.0000 [eV]
       1       2       3       4       5       6       7       8       9
    1 -17.511  -2.784  -1.345  -1.345  -2.784  -1.345  -2.784  -2.784  -1.345
        0.000  -3.664  -2.022  -2.022  -3.664   2.022   3.664   3.664   2.022

    2  -2.784 -20.563  -0.713  -0.713  -1.612   0.691  -0.100  -0.100   0.219
        3.664   0.000   0.315   0.315  -0.000  -1.891   0.064   0.064  -0.253

  chi0(G,G') at the    2 th omega   0.0000  29.2768 [eV]
       1       2       3       4       5       6       7       8       9
    1  -2.844  -1.186  -0.077  -0.077  -1.186  -0.077  -1.186  -1.186  -0.077
        0.000  -1.182  -0.068  -0.068  -1.182   0.068   1.182   1.182   0.068

    2  -1.186  -9.171  -0.145  -0.145  -1.195   0.160  -0.132  -0.132  -0.073
        1.182   0.000   0.005   0.005  -0.000  -0.156  -0.016  -0.016  -0.019

  Average fulfillment of the sum rule on Im[epsilon] for q-point   21 :    158.83  [%]


--------------------------------------------------------------------------------
  q-point number 22        q = ( 0.375000, 0.250000, 0.125000) [r.l.u.]
--------------------------------------------------------------------------------
  chi0(G,G') at the    1 th omega   0.0000   0.0000 [eV]
       1       2       3       4       5       6       7       8       9
    1 -12.307  -1.875  -0.957  -0.073  -1.591  -0.073  -1.591  -1.875  -0.957
        0.000  -3.084  -2.045   0.418  -3.133  -0.418   3.133   3.084   2.045

    2  -1.875 -20.591  -0.891  -0.294  -1.151   0.433   0.264   0.000   0.328
        3.084   0.000   0.199   0.363   0.076  -2.647  -0.055   0.059  -0.276

  chi0(G,G') at the    2 th omega   0.0000  29.2768 [eV]
       1       2       3       4       5       6       7       8       9
    1  -0.985  -0.681  -0.076   0.304  -0.401   0.304  -0.401  -0.681  -0.076
        0.000  -0.692  -0.074   0.324  -0.408  -0.324   0.408   0.692   0.074

    2  -0.681  -8.369  -0.050   0.318  -0.367   0.272  -0.091  -0.107  -0.072
        0.692   0.000   0.004   0.006   0.002  -0.227  -0.035  -0.033  -0.038

  Average fulfillment of the sum rule on Im[epsilon] for q-point   22 :    166.78  [%]


--------------------------------------------------------------------------------
  q-point number 23        q = ( 0.500000, 0.250000, 0.125000) [r.l.u.]
--------------------------------------------------------------------------------
  chi0(G,G') at the    1 th omega   0.0000   0.0000 [eV]
       1       2       3       4       5       6       7       8       9
    1 -15.117  -2.319  -1.439  -0.804  -1.902  -0.008  -2.016  -2.288  -1.444
        0.000  -3.187  -2.771  -0.862  -3.457  -0.839   3.567   3.475   2.771

    2  -2.319 -20.576  -0.903  -0.455  -1.195   0.506  -0.013  -0.201   0.013
        3.187   0.000   0.215   0.362   0.110  -2.649   0.048   0.143  -0.142

  chi0(G,G') at the    2 th omega   0.0000  29.2768 [eV]
       1       2       3       4       5       6       7       8       9
    1  -1.661  -1.001  -0.173   0.198  -0.491   0.412  -0.630  -0.885  -0.335
        0.000  -1.007  -0.171   0.215  -0.495  -0.440   0.636   0.892   0.337

    2  -1.001  -9.052  -0.341  -0.007  -0.631   0.244  -0.112  -0.125  -0.097
        1.007   0.000   0.005   0.007   0.003  -0.205  -0.026  -0.025  -0.028

  Average fulfillment of the sum rule on Im[epsilon] for q-point   23 :    161.73  [%]


--------------------------------------------------------------------------------
  q-point number 24        q = (-0.375000, 0.250000, 0.125000) [r.l.u.]
--------------------------------------------------------------------------------
  chi0(G,G') at the    1 th omega   0.0000   0.0000 [eV]
       1       2       3       4       5       6       7       8       9
    1 -16.962   0.001  -2.424  -1.917  -2.674  -2.839  -1.884  -2.244  -1.428
        0.000   0.947  -3.778  -3.164  -3.626   3.327   3.270   3.700   1.781

    2   0.001 -16.962   0.107   1.557  -0.320   0.564   0.930   0.966  -0.170
       -0.947   0.000  -0.336  -0.173  -0.353  -2.627  -0.353  -0.342  -0.785

  chi0(G,G') at the    2 th omega   0.0000  29.2768 [eV]
       1       2       3       4       5       6       7       8       9
    1  -2.527   0.448  -0.892  -0.630  -1.118  -1.320  -0.333  -0.636   0.021
        0.000   0.479  -0.893  -0.631  -1.118   1.317   0.332   0.638  -0.032

    2   0.448  -2.527   0.688   1.114   0.322   0.206  -0.004  -0.016   0.002
       -0.479   0.000  -0.005  -0.002  -0.007  -0.174  -0.018  -0.023  -0.017

  Average fulfillment of the sum rule on Im[epsilon] for q-point   24 :    159.91  [%]


--------------------------------------------------------------------------------
  q-point number 25        q = ( 0.500000, 0.375000, 0.125000) [r.l.u.]
--------------------------------------------------------------------------------
  chi0(G,G') at the    1 th omega   0.0000   0.0000 [eV]
       1       2       3       4       5       6       7       8       9
    1 -16.065  -2.455  -1.278  -0.735  -2.175  -0.735  -2.175  -2.455  -1.278
        0.000  -3.524  -2.443  -0.763  -3.579   0.763   3.579   3.524   2.443

    2  -2.455 -20.640  -0.877  -0.527  -1.349   0.690   0.028  -0.149   0.187
        3.524   0.000   0.226   0.368   0.045  -2.294   0.048   0.150  -0.215

  chi0(G,G') at the    2 th omega   0.0000  29.2768 [eV]
       1       2       3       4       5       6       7       8       9
    1  -1.878  -0.988  -0.145   0.233  -0.747   0.233  -0.747  -0.988  -0.145
        0.000  -0.993  -0.141   0.252  -0.753  -0.252   0.753   0.993   0.141

    2  -0.988  -8.947  -0.238   0.110  -0.803   0.225  -0.114  -0.126  -0.081
        0.993   0.000   0.005   0.007   0.002  -0.195  -0.024  -0.023  -0.028

  Average fulfillment of the sum rule on Im[epsilon] for q-point   25 :    160.67  [%]


--------------------------------------------------------------------------------
  q-point number 26        q = (-0.375000, 0.375000, 0.125000) [r.l.u.]
--------------------------------------------------------------------------------
  chi0(G,G') at the    1 th omega   0.0000   0.0000 [eV]
       1       2       3       4       5       6       7       8       9
    1 -18.607  -0.776  -2.695  -2.305  -3.085  -3.205  -2.266  -2.618  -1.427
        0.000  -0.565  -3.984  -3.612  -3.572   3.542   3.686   3.986   1.620

    2  -0.776 -17.884  -0.033   1.126  -0.555   0.736   1.035   0.982  -0.679
        0.565   0.000  -0.269  -0.088  -0.296  -2.290  -0.108  -0.113  -0.472

  chi0(G,G') at the    2 th omega   0.0000  29.2768 [eV]
       1       2       3       4       5       6       7       8       9
    1  -3.240   0.291  -0.998  -0.746  -1.406  -1.493  -0.610  -0.880   0.076
        0.000   0.314  -0.995  -0.744  -1.396   1.483   0.608   0.878  -0.090

    2   0.291  -2.648   0.644   1.065  -0.033   0.162  -0.011  -0.024   0.002
       -0.314   0.000  -0.003  -0.001  -0.007  -0.147  -0.008  -0.015  -0.007

  Average fulfillment of the sum rule on Im[epsilon] for q-point   26 :    159.15  [%]


--------------------------------------------------------------------------------
  q-point number 27        q = (-0.250000, 0.375000, 0.125000) [r.l.u.]
--------------------------------------------------------------------------------
  chi0(G,G') at the    1 th omega   0.0000   0.0000 [eV]
       1       2       3       4       5       6       7       8       9
    1 -17.280  -0.795  -2.302  -1.871  -2.704  -2.704  -1.871  -2.302  -0.795
        0.000  -0.591  -3.809  -3.331  -3.481   3.481   3.331   3.809   0.591

    2  -0.795 -19.060   0.109   1.317  -0.450   0.728   1.045   0.965  -0.301
        0.591   0.000  -0.313  -0.131  -0.365  -2.352  -0.237  -0.217  -0.852

  chi0(G,G') at the    2 th omega   0.0000  29.2768 [eV]
       1       2       3       4       5       6       7       8       9
    1  -2.370   0.279  -0.731  -0.445  -1.192  -1.192  -0.445  -0.731   0.279
        0.000   0.302  -0.734  -0.445  -1.192   1.192   0.445   0.734  -0.302

    2   0.279  -3.557   0.710   1.148   0.008   0.203  -0.016  -0.031   0.001
       -0.302   0.000  -0.003  -0.001  -0.007  -0.178  -0.019  -0.024  -0.018

  Average fulfillment of the sum rule on Im[epsilon] for q-point   27 :    159.55  [%]


--------------------------------------------------------------------------------
  q-point number 28        q = (-0.375000, 0.500000, 0.125000) [r.l.u.]
--------------------------------------------------------------------------------
  chi0(G,G') at the    1 th omega   0.0000   0.0000 [eV]
       1       2       3       4       5       6       7       8       9
    1 -19.522  -1.350  -2.975  -2.645  -3.563  -3.563  -2.645  -2.975  -1.350
        0.000  -1.700  -4.113  -3.854  -3.593   3.593   3.854   4.113   1.700

    2  -1.350 -18.276  -0.249   0.637  -0.660   0.704   0.941   0.851  -1.213
        1.700   0.000  -0.179  -0.000  -0.135  -1.827  -0.000   0.014   0.000

  chi0(G,G') at the    2 th omega   0.0000  29.2768 [eV]
       1       2       3       4       5       6       7       8       9
    1  -4.083   0.065  -1.146  -0.909  -1.684  -1.684  -0.909  -1.146   0.065
        0.000   0.079  -1.136  -0.903  -1.665   1.665   0.903   1.136  -0.079

    2   0.065  -2.992   0.522   0.929  -0.399   0.107  -0.022  -0.036   0.001
       -0.079   0.000  -0.002  -0.000  -0.006  -0.114   0.000  -0.008   0.000

  Average fulfillment of the sum rule on Im[epsilon] for q-point   28 :    158.83  [%]


--------------------------------------------------------------------------------
  q-point number 29        q = (-0.250000, 0.500000, 0.250000) [r.l.u.]
--------------------------------------------------------------------------------
  chi0(G,G') at the    1 th omega   0.0000   0.0000 [eV]
       1       2       3       4       5       6       7       8       9
    1 -19.229  -1.411  -2.805  -2.166  -3.237  -3.237  -2.166  -2.805  -1.411
        0.000  -1.723  -3.970  -3.530  -3.692   3.692   3.530   3.970   1.723

    2  -1.411 -19.229  -0.347   1.504  -0.703   0.814   1.035   0.717  -0.218
        1.723   0.000  -0.337   0.000  -0.283  -2.031   0.000  -0.149   0.000

  chi0(G,G') at the    2 th omega   0.0000  29.2768 [eV]
       1       2       3       4       5       6       7       8       9
    1  -3.420   0.114  -1.099  -0.585  -1.484  -1.484  -0.585  -1.099   0.114
        0.000   0.130  -1.093  -0.582  -1.472   1.472   0.582   1.093  -0.130

    2   0.114  -3.420   0.376   1.208  -0.246   0.142  -0.014  -0.044   0.002
       -0.130   0.000  -0.003   0.000  -0.006  -0.139   0.000  -0.014   0.000

  Average fulfillment of the sum rule on Im[epsilon] for q-point   29 :    158.74  [%]

================================================================================
== DATASET  2 ==================================================================
-   mpi_nproc: 256, omp_nthreads: -1 (-1 if OMP is not activated)


--- !DatasetInfo
iteration_state: {dtset: 2, }
dimensions: {natom: 2, nkpt: 29, mband: 480, nsppol: 1, nspinor: 1, nspden: 1, mpw: 4405, }
cutoff_energies: {ecut:  45.0, pawecutdg:  -1.0, }
electrons: {nelect:   2.80000000E+01, charge:   0.00000000E+00, occopt:   1.00000000E+00, tsmear:   1.00000000E-02, }
meta: {optdriver: 4, gwcalctyp: 0, }
...

 mkfilename: getwfk from: ../outdata_gs_DS2_WFK

 mkfilename : getscr/=0, take file _SCR from output of DATASET   1.

 Exchange-correlation functional for the present dataset will be:
  GGA: Perdew-Burke-Ernzerhof functional - ixc=11
 Citation for XC functional:
  J.P.Perdew, K.Burke, M.Ernzerhof, PRL 77, 3865 (1996)

 SIGMA: Calculation of the GW corrections 

 Based on a program developped by R.W. Godby, V. Olevano, G. Onida, and L. Reining.
 Incorporated in ABINIT by V. Olevano, G.-M. Rignanese, and M. Torrent.
.Using single precision arithmetic ; gwpc =  4

 Real(R)+Recip(G) space primitive vectors, cartesian coordinates (Bohr,Bohr^-1):
 R(1)=  0.0000000  5.3365866  5.3365866  G(1)= -0.0936928  0.0936928  0.0936928
 R(2)=  5.3365866  0.0000000  5.3365866  G(2)=  0.0936928 -0.0936928  0.0936928
 R(3)=  5.3365866  5.3365866  0.0000000  G(3)=  0.0936928  0.0936928 -0.0936928
 Unit cell volume ucvol=  3.0396297E+02 bohr^3
 Angles (23,13,12)=  6.00000000E+01  6.00000000E+01  6.00000000E+01 degrees
--------------------------------------------------------------------------------

 ==== K-mesh for the wavefunctions ====
 Number of points in the irreducible wedge :    29
 Reduced coordinates and weights : 

     1)     0.00000000E+00  0.00000000E+00  0.00000000E+00       0.00195
     2)     1.25000000E-01  0.00000000E+00  0.00000000E+00       0.01563
     3)     2.50000000E-01  0.00000000E+00  0.00000000E+00       0.01563
     4)     3.75000000E-01  0.00000000E+00  0.00000000E+00       0.01563
     5)     5.00000000E-01  0.00000000E+00  0.00000000E+00       0.00781
     6)     1.25000000E-01  1.25000000E-01  0.00000000E+00       0.01172
     7)     2.50000000E-01  1.25000000E-01  0.00000000E+00       0.04688
     8)     3.75000000E-01  1.25000000E-01  0.00000000E+00       0.04688
     9)     5.00000000E-01  1.25000000E-01  0.00000000E+00       0.04688
    10)    -3.75000000E-01  1.25000000E-01  0.00000000E+00       0.04688
    11)    -2.50000000E-01  1.25000000E-01  0.00000000E+00       0.04688
    12)    -1.25000000E-01  1.25000000E-01  0.00000000E+00       0.02344
    13)     2.50000000E-01  2.50000000E-01  0.00000000E+00       0.01172
    14)     3.75000000E-01  2.50000000E-01  0.00000000E+00       0.04688
    15)     5.00000000E-01  2.50000000E-01  0.00000000E+00       0.04688
    16)    -3.75000000E-01  2.50000000E-01  0.00000000E+00       0.04688
    17)    -2.50000000E-01  2.50000000E-01  0.00000000E+00       0.02344
    18)     3.75000000E-01  3.75000000E-01  0.00000000E+00       0.01172
    19)     5.00000000E-01  3.75000000E-01  0.00000000E+00       0.04688
    20)    -3.75000000E-01  3.75000000E-01  0.00000000E+00       0.02344
    21)     5.00000000E-01  5.00000000E-01  0.00000000E+00       0.00586
    22)     3.75000000E-01  2.50000000E-01  1.25000000E-01       0.04688
    23)     5.00000000E-01  2.50000000E-01  1.25000000E-01       0.09375
    24)    -3.75000000E-01  2.50000000E-01  1.25000000E-01       0.04688
    25)     5.00000000E-01  3.75000000E-01  1.25000000E-01       0.04688
    26)    -3.75000000E-01  3.75000000E-01  1.25000000E-01       0.09375
    27)    -2.50000000E-01  3.75000000E-01  1.25000000E-01       0.04688
    28)    -3.75000000E-01  5.00000000E-01  1.25000000E-01       0.02344
    29)    -2.50000000E-01  5.00000000E-01  2.50000000E-01       0.01172

 Together with 24 symmetry operations and time-reversal symmetry 
 yields   512 points in the full Brillouin Zone.


 ==== Q-mesh for screening function ====
 Number of points in the irreducible wedge :    29
 Reduced coordinates and weights : 

     1)     0.00000000E+00  0.00000000E+00  0.00000000E+00       0.00195
     2)     1.25000000E-01  0.00000000E+00  0.00000000E+00       0.01563
     3)     2.50000000E-01  0.00000000E+00  0.00000000E+00       0.01563
     4)     3.75000000E-01  0.00000000E+00  0.00000000E+00       0.01563
     5)     5.00000000E-01  0.00000000E+00  0.00000000E+00       0.00781
     6)     1.25000000E-01  1.25000000E-01  0.00000000E+00       0.01172
     7)     2.50000000E-01  1.25000000E-01  0.00000000E+00       0.04688
     8)     3.75000000E-01  1.25000000E-01  0.00000000E+00       0.04688
     9)     5.00000000E-01  1.25000000E-01  0.00000000E+00       0.04688
    10)    -3.75000000E-01  1.25000000E-01  0.00000000E+00       0.04688
    11)    -2.50000000E-01  1.25000000E-01  0.00000000E+00       0.04688
    12)    -1.25000000E-01  1.25000000E-01  0.00000000E+00       0.02344
    13)     2.50000000E-01  2.50000000E-01  0.00000000E+00       0.01172
    14)     3.75000000E-01  2.50000000E-01  0.00000000E+00       0.04688
    15)     5.00000000E-01  2.50000000E-01  0.00000000E+00       0.04688
    16)    -3.75000000E-01  2.50000000E-01  0.00000000E+00       0.04688
    17)    -2.50000000E-01  2.50000000E-01  0.00000000E+00       0.02344
    18)     3.75000000E-01  3.75000000E-01  0.00000000E+00       0.01172
    19)     5.00000000E-01  3.75000000E-01  0.00000000E+00       0.04688
    20)    -3.75000000E-01  3.75000000E-01  0.00000000E+00       0.02344
    21)     5.00000000E-01  5.00000000E-01  0.00000000E+00       0.00586
    22)     3.75000000E-01  2.50000000E-01  1.25000000E-01       0.04688
    23)     5.00000000E-01  2.50000000E-01  1.25000000E-01       0.09375
    24)    -3.75000000E-01  2.50000000E-01  1.25000000E-01       0.04688
    25)     5.00000000E-01  3.75000000E-01  1.25000000E-01       0.04688
    26)    -3.75000000E-01  3.75000000E-01  1.25000000E-01       0.09375
    27)    -2.50000000E-01  3.75000000E-01  1.25000000E-01       0.04688
    28)    -3.75000000E-01  5.00000000E-01  1.25000000E-01       0.02344
    29)    -2.50000000E-01  5.00000000E-01  2.50000000E-01       0.01172

 Together with 24 symmetry operations and time-reversal symmetry 
 yields   512 points in the full Brillouin Zone.


 setmesh: FFT mesh size selected  =    45x   45x   45
          total number of points  =        91125

 Number of electrons calculated from density =   28.0000; Expected =   28.0000
 average of density, n =  0.092116
 r_s =    1.3736
 omega_plasma =   29.2768 [eV]


 === KS Band Gaps ===
  >>>> For spin  1
   Minimum direct gap =   0.5385 [eV], located at k-point      :   0.0000  0.0000  0.0000
   Fundamental gap    =   0.5385 [eV], Top of valence bands at :   0.0000  0.0000  0.0000
                                       Bottom of conduction at :   0.0000  0.0000  0.0000
 SIGMA fundamental parameters:
 PLASMON POLE MODEL  1
 number of plane-waves for SigmaX                 3119
 number of plane-waves for SigmaC and W            609
 number of plane-waves for wavefunctions          4381
 number of bands                                   480
 number of independent spin polarizations            1
 number of spinorial components                      1
 number of k-points in IBZ                          29
 number of q-points in IBZ                          29
 number of symmetry operations                      24
 number of k-points in BZ                          512
 number of q-points in BZ                          512
 number of frequencies for dSigma/dE                 9
 frequency step for dSigma/dE [eV]                0.25
 number of omega for Sigma on real axis              0
 max omega for Sigma on real axis  [eV]           0.00
 zcut for avoiding poles [eV]                     0.10

 EPSILON^-1 parameters (SCR file):
 dimension of the eps^-1 matrix on file            609
 dimension of the eps^-1 matrix used               609
 number of plane-waves for wavefunctions          4381
 number of bands                                   480
 number of q-points in IBZ                          29
 number of frequencies                               2
 number of real frequencies                          1
 number of imag frequencies                          1

 matrix elements of self-energy operator (all in [eV])

 Perturbative Calculation

--- !SelfEnergy_ee
iteration_state: {dtset: 2, }
kpoint     : [   0.000,    0.000,    0.000, ]
spin       : 1
KS_gap     :    0.538
QP_gap     :    1.076
Delta_QP_KS:    0.538
data: !SigmaeeData |
     Band     E0 <VxcDFT>   SigX SigC(E0)      Z dSigC/dE  Sig(E)    E-E0       E
       12   4.045 -13.352 -15.450   0.733   0.795  -0.258 -14.437  -1.085   2.960
       13   4.045 -13.352 -15.450   0.733   0.795  -0.258 -14.437  -1.085   2.960
       14   4.045 -13.352 -15.450   0.733   0.795  -0.258 -14.437  -1.085   2.960
       15   4.583 -13.918 -10.914  -3.691   0.796  -0.256 -14.465  -0.547   4.036
       16   7.790 -10.865  -7.013  -4.239   0.797  -0.254 -11.173  -0.309   7.481
       17   7.790 -10.865  -7.013  -4.239   0.797  -0.254 -11.173  -0.309   7.481
       18   7.790 -10.865  -7.013  -4.239   0.797  -0.254 -11.173  -0.309   7.481
       19  11.660  -8.583  -3.701  -5.433   0.784  -0.275  -9.015  -0.432  11.228
       20  14.219 -10.862  -4.696  -5.555   0.783  -0.278 -10.384   0.478  14.697
       21  14.219 -10.862  -4.696  -5.555   0.783  -0.278 -10.384   0.478  14.697
       22  15.636  -8.013  -2.519  -5.848   0.768  -0.302  -8.285  -0.272  15.364
       23  15.636  -8.013  -2.519  -5.848   0.768  -0.302  -8.285  -0.272  15.364
       24  15.636  -8.013  -2.519  -5.848   0.768  -0.302  -8.285  -0.272  15.364
       25  18.619  -6.347  -1.435  -5.816   0.759  -0.317  -7.033  -0.686  17.933
       26  29.757 -12.009  -5.241 -10.879   0.623  -0.604 -14.572  -2.563  27.194
       27  29.757 -12.009  -5.241 -10.879   0.623  -0.604 -14.572  -2.563  27.194
       28  29.757 -12.009  -5.241 -10.879   0.623  -0.604 -14.572  -2.563  27.194
...


--- !SelfEnergy_ee
iteration_state: {dtset: 2, }
kpoint     : [   0.500,    0.500,    0.000, ]
spin       : 1
KS_gap     :    4.151
QP_gap     :    5.160
Delta_QP_KS:    1.009
data: !SigmaeeData |
     Band     E0 <VxcDFT>   SigX SigC(E0)      Z dSigC/dE  Sig(E)    E-E0       E
       12  -2.779 -12.011 -16.885   3.281   0.745  -0.342 -13.198  -1.187  -3.967
       13   1.361 -11.736 -15.124   1.764   0.782  -0.278 -13.007  -1.271   0.090
       14   1.361 -11.736 -15.124   1.764   0.782  -0.278 -13.007  -1.271   0.090
       15   5.512  -9.409  -5.886  -3.847   0.811  -0.234  -9.671  -0.262   5.249
       16   5.708 -10.553  -6.921  -3.935   0.805  -0.241 -10.796  -0.244   5.464
       17  14.245 -12.500  -6.913  -6.264   0.743  -0.346 -13.003  -0.503  13.743
       18  14.245 -12.500  -6.913  -6.264   0.743  -0.346 -13.003  -0.503  13.743
       19  15.050 -12.016  -6.706  -6.163   0.752  -0.330 -12.657  -0.641  14.409
       20  17.398 -11.588  -5.753  -6.498   0.746  -0.340 -12.083  -0.495  16.904
       21  17.502 -11.083  -4.629  -6.217   0.760  -0.315 -10.903   0.181  17.683
       22  17.502 -11.083  -4.629  -6.217   0.760  -0.315 -10.903   0.181  17.683
       23  17.610 -10.741  -4.054  -6.317   0.764  -0.308 -10.458   0.283  17.893
       24  19.477 -10.445  -3.489  -6.706   0.734  -0.363 -10.262   0.184  19.661
       25  23.639  -9.990  -3.120  -7.305   0.655  -0.526 -10.275  -0.285  23.353
       26  23.887  -8.834  -2.419  -7.278   0.678  -0.475  -9.419  -0.585  23.302
       27  23.887  -8.834  -2.419  -7.278   0.678  -0.475  -9.419  -0.585  23.302
...


== END DATASET(S) ==============================================================
================================================================================
  
 -outvars: echo values of variables after computation  --------
            acell      1.0673173199E+01  1.0673173199E+01  1.0673173199E+01 Bohr
              amu      6.97230000E+01  7.49215900E+01
             bdgw          12      26      12      26
           diemac      1.20000000E+01
             ecut      4.50000000E+01 Hartree
          ecuteps      1.20000000E+01 Hartree
         ecutsigx      3.60000000E+01 Hartree
          ecutwfn      4.50000000E+01 Hartree
           etotal1     0.0000000000E+00
           etotal2     0.0000000000E+00
            fcart1     0.0000000000E+00  0.0000000000E+00  0.0000000000E+00
                       0.0000000000E+00  0.0000000000E+00  0.0000000000E+00
            fcart2     0.0000000000E+00  0.0000000000E+00  0.0000000000E+00
                       0.0000000000E+00  0.0000000000E+00  0.0000000000E+00
-          fftalg         312
           getscr1          0
           getscr2         -1
           istwfk        1    0    0    0    1    0    0    0    0    0
                         0    0    0    0    0    0    0    0    0    0
                         1    0    0    0    0    0    0    0    0
              ixc          11
           jdtset        1    2
              kpt      0.00000000E+00  0.00000000E+00  0.00000000E+00
                       1.25000000E-01  0.00000000E+00  0.00000000E+00
                       2.50000000E-01  0.00000000E+00  0.00000000E+00
                       3.75000000E-01  0.00000000E+00  0.00000000E+00
                       5.00000000E-01  0.00000000E+00  0.00000000E+00
                       1.25000000E-01  1.25000000E-01  0.00000000E+00
                       2.50000000E-01  1.25000000E-01  0.00000000E+00
                       3.75000000E-01  1.25000000E-01  0.00000000E+00
                       5.00000000E-01  1.25000000E-01  0.00000000E+00
                      -3.75000000E-01  1.25000000E-01  0.00000000E+00
                      -2.50000000E-01  1.25000000E-01  0.00000000E+00
                      -1.25000000E-01  1.25000000E-01  0.00000000E+00
                       2.50000000E-01  2.50000000E-01  0.00000000E+00
                       3.75000000E-01  2.50000000E-01  0.00000000E+00
                       5.00000000E-01  2.50000000E-01  0.00000000E+00
                      -3.75000000E-01  2.50000000E-01  0.00000000E+00
                      -2.50000000E-01  2.50000000E-01  0.00000000E+00
                       3.75000000E-01  3.75000000E-01  0.00000000E+00
                       5.00000000E-01  3.75000000E-01  0.00000000E+00
                      -3.75000000E-01  3.75000000E-01  0.00000000E+00
                       5.00000000E-01  5.00000000E-01  0.00000000E+00
                       3.75000000E-01  2.50000000E-01  1.25000000E-01
                       5.00000000E-01  2.50000000E-01  1.25000000E-01
                      -3.75000000E-01  2.50000000E-01  1.25000000E-01
                       5.00000000E-01  3.75000000E-01  1.25000000E-01
                      -3.75000000E-01  3.75000000E-01  1.25000000E-01
                      -2.50000000E-01  3.75000000E-01  1.25000000E-01
                      -3.75000000E-01  5.00000000E-01  1.25000000E-01
                      -2.50000000E-01  5.00000000E-01  2.50000000E-01
            kptgw      0.00000000E+00  0.00000000E+00  0.00000000E+00
                       5.00000000E-01  5.00000000E-01  0.00000000E+00
         kptrlatt        8    0    0      0    8    0      0    0    8
          kptrlen      6.03765852E+01
P           mkmem           1
            natom           2
            nband         480
           ndtset           2
            ngfft          48      48      48
             nkpt          29
           nkptgw           2
           npweps         609
          npwsigx        3119
           npwwfn        4381
            nstep          50
             nsym          24
           ntypat           2
              occ      2.000000  2.000000  2.000000  2.000000  2.000000  2.000000
                       2.000000  2.000000  2.000000  2.000000  2.000000  2.000000
                       2.000000  2.000000  0.000000  0.000000  0.000000  0.000000
                       0.000000  0.000000  0.000000  0.000000  0.000000  0.000000
                       0.000000  0.000000  0.000000  0.000000  0.000000  0.000000
                       0.000000  0.000000  0.000000  0.000000  0.000000  0.000000
                       0.000000  0.000000  0.000000  0.000000  0.000000  0.000000
                       0.000000  0.000000  0.000000  0.000000  0.000000  0.000000
                       0.000000  0.000000  0.000000  0.000000  0.000000  0.000000
                       0.000000  0.000000  0.000000  0.000000  0.000000  0.000000
                       0.000000  0.000000  0.000000  0.000000  0.000000  0.000000
                       0.000000  0.000000  0.000000  0.000000  0.000000  0.000000
                       0.000000  0.000000  0.000000  0.000000  0.000000  0.000000
                       0.000000  0.000000  0.000000  0.000000  0.000000  0.000000
                       0.000000  0.000000  0.000000  0.000000  0.000000  0.000000
                       0.000000  0.000000  0.000000  0.000000  0.000000  0.000000
                       0.000000  0.000000  0.000000  0.000000  0.000000  0.000000
                       0.000000  0.000000  0.000000  0.000000  0.000000  0.000000
                       0.000000  0.000000  0.000000  0.000000  0.000000  0.000000
                       0.000000  0.000000  0.000000  0.000000  0.000000  0.000000
                       0.000000  0.000000  0.000000  0.000000  0.000000  0.000000
                       0.000000  0.000000  0.000000  0.000000  0.000000  0.000000
                       0.000000  0.000000  0.000000  0.000000  0.000000  0.000000
                       0.000000  0.000000  0.000000  0.000000  0.000000  0.000000
                       0.000000  0.000000  0.000000  0.000000  0.000000  0.000000
                       0.000000  0.000000  0.000000  0.000000  0.000000  0.000000
                       0.000000  0.000000  0.000000  0.000000  0.000000  0.000000
                       0.000000  0.000000  0.000000  0.000000  0.000000  0.000000
                       0.000000  0.000000  0.000000  0.000000  0.000000  0.000000
                       0.000000  0.000000  0.000000  0.000000  0.000000  0.000000
                       0.000000  0.000000  0.000000  0.000000  0.000000  0.000000
                       0.000000  0.000000  0.000000  0.000000  0.000000  0.000000
                       0.000000  0.000000  0.000000  0.000000  0.000000  0.000000
                       0.000000  0.000000  0.000000  0.000000  0.000000  0.000000
                       0.000000  0.000000  0.000000  0.000000  0.000000  0.000000
                       0.000000  0.000000  0.000000  0.000000  0.000000  0.000000
                       0.000000  0.000000  0.000000  0.000000  0.000000  0.000000
[...]
                       0.000000  0.000000  0.000000  0.000000  0.000000  0.000000
                       0.000000  0.000000  0.000000  0.000000  0.000000  0.000000
                       0.000000  0.000000  0.000000  0.000000  0.000000  0.000000
                       0.000000  0.000000  0.000000  0.000000  0.000000  0.000000
                       0.000000  0.000000  0.000000  0.000000  0.000000  0.000000
                       0.000000  0.000000  0.000000  0.000000  0.000000  0.000000
                       0.000000  0.000000  0.000000  0.000000  0.000000  0.000000
                       0.000000  0.000000  0.000000  0.000000  0.000000  0.000000
                       0.000000  0.000000  0.000000  0.000000  0.000000  0.000000
                       0.000000  0.000000  0.000000  0.000000  0.000000  0.000000
                       0.000000  0.000000  0.000000  0.000000  0.000000  0.000000
                       0.000000  0.000000  0.000000  0.000000  0.000000  0.000000
                       0.000000  0.000000  0.000000  0.000000  0.000000  0.000000
                       0.000000  0.000000  0.000000  0.000000  0.000000  0.000000
                       0.000000  0.000000  0.000000  0.000000  0.000000  0.000000
                       0.000000  0.000000  0.000000  0.000000  0.000000  0.000000
                       0.000000  0.000000  0.000000  0.000000  0.000000  0.000000
                       0.000000  0.000000  0.000000  0.000000  0.000000  0.000000
                       0.000000  0.000000  0.000000  0.000000  0.000000  0.000000
                       0.000000  0.000000  0.000000  0.000000  0.000000  0.000000
                       0.000000  0.000000  0.000000  0.000000  0.000000  0.000000
                       0.000000  0.000000  0.000000  0.000000  0.000000  0.000000
                       0.000000  0.000000  0.000000  0.000000  0.000000  0.000000
                       0.000000  0.000000  0.000000  0.000000  0.000000  0.000000
                       0.000000  0.000000  0.000000  0.000000  0.000000  0.000000
        optdriver1          3
        optdriver2          4
            rprim      0.0000000000E+00  5.0000000000E-01  5.0000000000E-01
                       5.0000000000E-01  0.0000000000E+00  5.0000000000E-01
                       5.0000000000E-01  5.0000000000E-01  0.0000000000E+00
          spgroup         216
           strten1     0.0000000000E+00  0.0000000000E+00  0.0000000000E+00
                       0.0000000000E+00  0.0000000000E+00  0.0000000000E+00
           strten2     0.0000000000E+00  0.0000000000E+00  0.0000000000E+00
                       0.0000000000E+00  0.0000000000E+00  0.0000000000E+00
           symrel      1  0  0   0  1  0   0  0  1       0 -1  1   0 -1  0   1 -1  0
                      -1  0  0  -1  0  1  -1  1  0       0  1 -1   1  0 -1   0  0 -1
                      -1  0  0  -1  1  0  -1  0  1       0 -1  1   1 -1  0   0 -1  0
                       1  0  0   0  0  1   0  1  0       0  1 -1   0  0 -1   1  0 -1
                      -1  0  1  -1  1  0  -1  0  0       0 -1  0   1 -1  0   0 -1  1
                       1  0 -1   0  0 -1   0  1 -1       0  1  0   0  0  1   1  0  0
                       1  0 -1   0  1 -1   0  0 -1       0 -1  0   0 -1  1   1 -1  0
                      -1  0  1  -1  0  0  -1  1  0       0  1  0   1  0  0   0  0  1
                       0  0 -1   0  1 -1   1  0 -1       1 -1  0   0 -1  1   0 -1  0
                       0  0  1   1  0  0   0  1  0      -1  1  0  -1  0  0  -1  0  1
                       0  0  1   0  1  0   1  0  0       1 -1  0   0 -1  0   0 -1  1
                       0  0 -1   1  0 -1   0  1 -1      -1  1  0  -1  0  1  -1  0  0
           timopt          -1
            typat      1  2
              wtk        0.00195    0.01563    0.01563    0.01563    0.00781    0.01172
                         0.04688    0.04688    0.04688    0.04688    0.04688    0.02344
                         0.01172    0.04688    0.04688    0.04688    0.02344    0.01172
                         0.04688    0.02344    0.00586    0.04688    0.09375    0.04688
                         0.04688    0.09375    0.04688    0.02344    0.01172
           xangst      0.0000000000E+00  0.0000000000E+00  0.0000000000E+00
                       1.4120000000E+00  1.4120000000E+00  1.4120000000E+00
            xcart      0.0000000000E+00  0.0000000000E+00  0.0000000000E+00
                       2.6682932996E+00  2.6682932996E+00  2.6682932996E+00
             xred      0.0000000000E+00  0.0000000000E+00  0.0000000000E+00
                       2.5000000000E-01  2.5000000000E-01  2.5000000000E-01
            znucl       31.00000   33.00000

================================================================================

 Test the timer : 
  a combined call timab(*,1,tsec) + timab(*,2,tsec) is 
- CPU time =    6.0665E-07 sec,    Wall time =    6.1163E-07 sec

- Total cpu        time (s,m,h):     146234.5     2437.24     40.621
- Total wall clock time (s,m,h):     146392.1     2439.87     40.664
-
- For major independent code sections, cpu and wall times (sec),
-  as well as % of the time and number of calls for node 0
-
-<BEGIN_TIMER mpi_nprocs = 256, omp_nthreads = 1, mpi_rank = 0>
- cpu_time =          564.2, wall_time =          571.9
-
- routine                            cpu     %          wall     %      number of calls Gflops    Speedup Efficacity
-                                                                        (-1=no count)
- sigma/=fourdp                    78.935   0.1        82.521   0.1              1      -1.00        0.96       0.96
- wfd_read_wfk                     14.417   0.0        14.437   0.0              2      -1.00        1.00       1.00
- pspini                            0.754   0.0         0.755   0.0              2      -1.00        1.00       1.00
- others (152)                      0.568   0.0         0.612   0.0             -1      -1.00        0.93       0.93
-<END_TIMER>
-
- subtotal                         94.673   0.1        98.326   0.1                                  0.96       0.96

- For major independent code sections, cpu and wall times (sec),
- as well as % of the total time and number of calls 

-<BEGIN_TIMER mpi_nprocs = 256, omp_nthreads = 1, mpi_rank = world>
- cpu_time =      146234.5, wall_time =      146392.1
-
- routine                            cpu     %          wall     %      number of calls Gflops    Speedup Efficacity
-                                                                        (-1=no count)
- sigma/=fourdp                 21019.896  14.4     21095.231  14.4            256      -1.00        1.00       1.00
- wfd_read_wfk                   3694.175   2.5      3694.844   2.5            512      -1.00        1.00       1.00
- pspini                          190.905   0.1       191.727   0.1            512      -1.00        1.00       1.00
- timing timab                     29.767   0.0        29.771   0.0           3584      -1.00        1.00       1.00
- xc:pot/=fourdp                   23.439   0.0        23.453   0.0            768      -1.00        1.00       1.00
- fourdp                           16.849   0.0        23.810   0.0           8704      -1.00        0.71       0.71
- abinit(2)                        13.332   0.0        13.686   0.0            256      -1.00        0.97       0.97
- mkffnl                            9.531   0.0         9.510   0.0           7424      -1.00        1.00       1.00
- invars2                           9.480   0.0         9.481   0.0            512      -1.00        1.00       1.00
- ewald                             5.680   0.0         5.681   0.0            512      -1.00        1.00       1.00
- mkcore                            3.646   0.0         3.648   0.0            512      -1.00        1.00       1.00
- kpgsph                            2.547   0.0         2.544   0.0          76346      -1.00        1.00       1.00
- symrhg(no FFT)                    1.649   0.0         1.650   0.0            512      -1.00        1.00       1.00
- others (142)                      0.000   0.0         0.000   0.0             -1      -1.00        0.00       0.00
-<END_TIMER>

- subtotal                      25020.896  17.1     25105.037  17.1                                  1.00       1.00

 Partitioning of abinit
- abinit                       146234.505 100.0    146392.097 100.0            256                   1.00       1.00
 
- abinit(1)                        53.523   0.0        61.042   0.0            256                   0.88       0.88
- abinit(4)                        59.695   0.0        63.880   0.0            256                   0.93       0.93
- abinit(5)                        36.155   0.0        36.227   0.0            256                   1.00       1.00
- driver                       146085.407  99.9    146230.244  99.9            256                   1.00       1.00
- timing timab                     29.767   0.0        29.771   0.0           3584                   1.00       1.00

- subtotal                     146234.505 100.0    146392.097 100.0                                  1.00       1.00

 Partitioning of driver
- driver                       146085.407  99.9    146230.244  99.9            256                   1.00       1.00
 
- screening                    125002.276  85.5    125055.779  85.4            256                   1.00       1.00
- sigma                         21020.327  14.4     21095.663  14.4            256                   1.00       1.00
- (other)                          53.552   0.0        53.587   0.0             -1                   1.00       1.00

- subtotal                     146085.407  99.9    146230.244  99.9                                  1.00       1.00

 Partitioning of screening
- screening                    125002.276  85.5    125055.779  85.4            256                   1.00       1.00
 
- screening(init1)               1902.131   1.3      1907.792   1.3            256                   1.00       1.00
- screening(wfs)                 1873.605   1.3      1874.067   1.3            256                   1.00       1.00
- screening(1)                     42.865   0.0        42.874   0.0            256                   1.00       1.00
- screening(density)               72.309   0.0        82.666   0.1            256                   0.87       0.87
- screening(cchi0q0)             1578.959   1.1      1585.351   1.1            256                   1.00       1.00
- screening(cchi0)             118896.495  81.3    118913.820  81.2           7168                   1.00       1.00
- screening(q-loop,end)           612.946   0.4       613.303   0.4           7424                   1.00       1.00

- subtotal                     124999.332  85.5    125039.996  85.4                                  1.00       1.00

 Partitioning of sigma
- sigma                         21020.327  14.4     21095.663  14.4            256                   1.00       1.00
 
- setup_sigma                    1699.051   1.2      1704.072   1.2            256                   1.00       1.00
- sigma(rdkss)                   1844.158   1.3      1844.423   1.3            256                   1.00       1.00
- sigma(make_vhxc)                 67.575   0.0        67.583   0.0            256                   1.00       1.00
- sigma(hqp_init)                  47.149   0.0        47.170   0.0            256                   1.00       1.00
- sigma(getW)                     237.917   0.2       298.702   0.2            256                   0.80       0.80
- sigma(calc_sigx_me)             703.189   0.5       703.365   0.5            256                   1.00       1.00
- sigma(calc_sigc_me)           16370.650  11.2     16372.719  11.2            512                   1.00       1.00

- subtotal                      21012.651  14.4     21087.724  14.4                                  1.00       1.00

 Partitioning of calc_sigc_me
- calc_sigc_me                  16370.649  11.2     16372.719  11.2            512                   1.00       1.00
 
- calc_sigc_me(Init)              118.408   0.1       118.469   0.1            512                   1.00       1.00
- calc_sigc_me(Init q)             36.686   0.0        36.785   0.0          22528                   1.00       1.00
- calc_sigc_me(loop)            14782.673  10.1     14784.443  10.1          22528                   1.00       1.00
- calc_sigc_me(xmpi_sum)         1424.413   1.0      1424.601   1.0            512                   1.00       1.00

- subtotal                      16367.985  11.2     16370.162  11.2                                  1.00       1.00

 Partitioning of  fourdp (upwards partitioning)
- fourdp                           16.849   0.0        23.810   0.0           8704                   0.71       0.71
 

- subtotal                         16.849   0.0        23.810   0.0                                  0.71       0.71
-
-Synchronisation (=leave_test) and MPI calls 
- communic.MPI                      2.134   0.0         2.171   0.0            256                   0.98       0.98
-
- subtotal                          0.000   0.0         0.000   0.0                                  0.00       0.00

 Additional information
- timana(1)                         0.267   0.0         0.277   0.0            256                   0.96       0.96
- total timab                      30.765   0.0        30.769   0.0       51481338                   1.00       1.00
- xc:fourdp                         7.996   0.0         7.987   0.0           6144                   1.00       1.00
- calc_sigc_me(1)            22808899.687******  63891411.976******          42240                   0.36       0.36
- calc_sigc_me(rho_tw_g)          413.821   0.3       413.954   0.3          42240                   1.00       1.00
- calc_sigc_me(2)               14352.882   9.8     14356.210   9.8         689760                   1.00       1.00
- calc_sigc_me(sigma_me)            2.851   0.0         2.848   0.0         689760                   1.00       1.00
- cchi0                        118896.124  81.3    118913.504  81.2           7168                   1.00       1.00

 timana : in multi dataset mode, the more detailed analysis is not done.

================================================================================

 Suggested references for the acknowledgment of ABINIT usage.

 The users of ABINIT have little formal obligations with respect to the ABINIT group
 (those specified in the GNU General Public License, http://www.gnu.org/copyleft/gpl.txt).
 However, it is common practice in the scientific literature,
 to acknowledge the efforts of people that have made the research possible.
 In this spirit, please find below suggested citations of work written by ABINIT developers,
 corresponding to implementations inside of ABINIT that you have used in the present run.
 Note also that it will be of great value to readers of publications presenting these results,
 to read papers enabling them to understand the theoretical formalism and details
 of the ABINIT implementation.
 For information on why they are suggested, see also https://docs.abinit.org/theory/acknowledgments.
-
- [1] The Abinit project: Impact, environment and recent developments.
- Computer Phys. Comm. 248, 107042 (2020).
- X.Gonze, B. Amadon, G. Antonius, F.Arnardi, L.Baguet, J.-M.Beuken,
- J.Bieder, F.Bottin, J.Bouchet, E.Bousquet, N.Brouwer, F.Bruneval,
- G.Brunin, T.Cavignac, J.-B. Charraud, Wei Chen, M.Cote, S.Cottenier,
- J.Denier, G.Geneste, Ph.Ghosez, M.Giantomassi, Y.Gillet, O.Gingras,
- D.R.Hamann, G.Hautier, Xu He, N.Helbig, N.Holzwarth, Y.Jia, F.Jollet,
- W.Lafargue-Dit-Hauret, K.Lejaeghere, M.A.L.Marques, A.Martin, C.Martins,
- H.P.C. Miranda, F.Naccarato, K. Persson, G.Petretto, V.Planes, Y.Pouillon,
- S.Prokhorenko, F.Ricci, G.-M.Rignanese, A.H.Romero, M.M.Schmitt, M.Torrent,
- M.J.van Setten, B.Van Troeye, M.J.Verstraete, G.Zerah and J.W.Zwanzig
- Comment: the fifth generic paper describing the ABINIT project.
- Note that a version of this paper, that is not formatted for Computer Phys. Comm. 
- is available at https://www.abinit.org/sites/default/files/ABINIT20.pdf .
- The licence allows the authors to put it on the Web.
- DOI and bibtex: see https://docs.abinit.org/theory/bibliography/#gonze2020
-
- [2] Optimized norm-conserving Vanderbilt pseudopotentials.
- D.R. Hamann, Phys. Rev. B 88, 085117 (2013).
- Comment: Some pseudopotential generated using the ONCVPSP code were used.
- DOI and bibtex: see https://docs.abinit.org/theory/bibliography/#hamann2013
-
- [3] ABINIT: Overview, and focus on selected capabilities
- J. Chem. Phys. 152, 124102 (2020).
- A. Romero, D.C. Allan, B. Amadon, G. Antonius, T. Applencourt, L.Baguet,
- J.Bieder, F.Bottin, J.Bouchet, E.Bousquet, F.Bruneval,
- G.Brunin, D.Caliste, M.Cote,
- J.Denier, C. Dreyer, Ph.Ghosez, M.Giantomassi, Y.Gillet, O.Gingras,
- D.R.Hamann, G.Hautier, F.Jollet, G. Jomard,
- A.Martin, 
- H.P.C. Miranda, F.Naccarato, G.Petretto, N.A. Pike, V.Planes,
- S.Prokhorenko, T. Rangel, F.Ricci, G.-M.Rignanese, M.Royo, M.Stengel, M.Torrent,
- M.J.van Setten, B.Van Troeye, M.J.Verstraete, J.Wiktor, J.W.Zwanziger, and X.Gonze.
- Comment: a global overview of ABINIT, with focus on selected capabilities .
- Note that a version of this paper, that is not formatted for J. Chem. Phys 
- is available at https://www.abinit.org/sites/default/files/ABINIT20_JPC.pdf .
- The licence allows the authors to put it on the Web.
- DOI and bibtex: see https://docs.abinit.org/theory/bibliography/#romero2020
-
- [4] Recent developments in the ABINIT software package.
- Computer Phys. Comm. 205, 106 (2016).
- X.Gonze, F.Jollet, F.Abreu Araujo, D.Adams, B.Amadon, T.Applencourt,
- C.Audouze, J.-M.Beuken, J.Bieder, A.Bokhanchuk, E.Bousquet, F.Bruneval
- D.Caliste, M.Cote, F.Dahm, F.Da Pieve, M.Delaveau, M.Di Gennaro,
- B.Dorado, C.Espejo, G.Geneste, L.Genovese, A.Gerossier, M.Giantomassi,
- Y.Gillet, D.R.Hamann, L.He, G.Jomard, J.Laflamme Janssen, S.Le Roux,
- A.Levitt, A.Lherbier, F.Liu, I.Lukacevic, A.Martin, C.Martins,
- M.J.T.Oliveira, S.Ponce, Y.Pouillon, T.Rangel, G.-M.Rignanese,
- A.H.Romero, B.Rousseau, O.Rubel, A.A.Shukri, M.Stankovski, M.Torrent,
- M.J.Van Setten, B.Van Troeye, M.J.Verstraete, D.Waroquier, J.Wiktor,
- B.Xu, A.Zhou, J.W.Zwanziger.
- Comment: the fourth generic paper describing the ABINIT project.
- Note that a version of this paper, that is not formatted for Computer Phys. Comm. 
- is available at https://www.abinit.org/sites/default/files/ABINIT16.pdf .
- The licence allows the authors to put it on the Web.
- DOI and bibtex: see https://docs.abinit.org/theory/bibliography/#gonze2016
-
- And optionally:
-
- [5] ABINIT: First-principles approach of materials and nanosystem properties.
- Computer Phys. Comm. 180, 2582-2615 (2009).
- X. Gonze, B. Amadon, P.-M. Anglade, J.-M. Beuken, F. Bottin, P. Boulanger, F. Bruneval,
- D. Caliste, R. Caracas, M. Cote, T. Deutsch, L. Genovese, Ph. Ghosez, M. Giantomassi
- S. Goedecker, D.R. Hamann, P. Hermet, F. Jollet, G. Jomard, S. Leroux, M. Mancini, S. Mazevet,
- M.J.T. Oliveira, G. Onida, Y. Pouillon, T. Rangel, G.-M. Rignanese, D. Sangalli, R. Shaltaf,
- M. Torrent, M.J. Verstraete, G. Zerah, J.W. Zwanziger
- Comment: the third generic paper describing the ABINIT project.
- Note that a version of this paper, that is not formatted for Computer Phys. Comm. 
- is available at https://www.abinit.org/sites/default/files/ABINIT_CPC_v10.pdf .
- The licence allows the authors to put it on the Web.
- DOI and bibtex: see https://docs.abinit.org/theory/bibliography/#gonze2009
-
- Proc.   0 individual time (sec): cpu=        564.2  wall=        571.9

================================================================================

 Calculation completed.
.Delivered   0 WARNINGs and   0 COMMENTs to log file.
+Overall time at end (sec) : cpu=     146244.7  wall=     146402.4
