  ABINIT 9.9.2
  
-instrng: 30 lines of input have been read from file ../globals

-instrng: 44 lines of input have been read from file run.abi


--- !COMMENT
src_file: m_dtfil.F90
src_line: 1441
message: |
    Output file: run.abo already exists.
...


--- !COMMENT
src_file: m_dtfil.F90
src_line: 1465
message: |
    Renaming old: run.abo to: run.abo0002
...


.Version 9.9.2 of ABINIT 
.(MPI version, prepared for a x86_64_linux_gnu11.2 computer) 

.Copyright (C) 1998-2022 ABINIT group . 
 ABINIT comes with ABSOLUTELY NO WARRANTY.
 It is free software, and you are welcome to redistribute it
 under certain conditions (GNU General Public License,
 see ~abinit/COPYING or http://www.gnu.org/copyleft/gpl.txt).

 ABINIT is a project of the Universite Catholique de Louvain,
 Corning Inc. and other collaborators, see ~abinit/doc/developers/contributors.txt .
 Please read https://docs.abinit.org/theory/acknowledgments for suggested
 acknowledgments of the ABINIT effort.
 For more information, see https://www.abinit.org .

.Starting date : Fri 17 Feb 2023.
- ( at 01h16 )
  

 ++++++++++++++++++++++++++++++++++++++++++++++++++++++++++++++++++++++++++++++

 === Build Information === 
  Version       : 9.9.2
  Build target  : x86_64_linux_gnu11.2
  Build date    : 20230216

 === Compiler Suite === 
  C compiler       : gnu11.2
  C++ compiler     : gnu11.2
  Fortran compiler : gnu11.2
  CFLAGS           : -g -O2
  CXXFLAGS         : -g -O2 -mtune=native -march=native
  FCFLAGS          : -g -O2 -fbacktrace -ffree-line-length-none -fallow-argument-mismatc ...
  FC_LDFLAGS       : 

 === Optimizations === 
  Debug level        : basic
  Optimization level : standard
  Architecture       : amd_epyc

 === Multicore === 
  Parallel build : /opt/cray/pe/mpich/8.1.12/ofi/gnu/9.1
  Parallel I/O   : 
  openMP support : no
  GPU support    : 

 === Connectors / Fallbacks === 
  LINALG flavor  : netlib
  FFT flavor     : fftw3
  HDF5           : yes
  NetCDF         : yes
  NetCDF Fortran : yes
  LibXC          : yes
  Wannier90      : no

 === Experimental features === 
  Exports             : 
  GW double-precision : no

 ++++++++++++++++++++++++++++++++++++++++++++++++++++++++++++++++++++++++++++++


 ++++++++++++++++++++++++++++++++++++++++++++++++++++++++++++++++++++++++++++++
 Default optimizations:
   --- None ---


 ++++++++++++++++++++++++++++++++++++++++++++++++++++++++++++++++++++++++++++++


 ++++++++++++++++++++++++++++++++++++++++++++++++++++++++++++++++++++++++++++++
 CPP options activated during the build:

                    CC_GNU                   CXX_GNU                    FC_GNU
 
 HAVE_FC_ALLOCATABLE_DT...             HAVE_FC_ASYNC         HAVE_FC_BACKTRACE
 
  HAVE_FC_COMMAND_ARGUMENT      HAVE_FC_COMMAND_LINE        HAVE_FC_CONTIGUOUS
 
           HAVE_FC_CPUTIME              HAVE_FC_EXIT             HAVE_FC_FLUSH
 
             HAVE_FC_GAMMA            HAVE_FC_GETENV   HAVE_FC_IEEE_ARITHMETIC
 
   HAVE_FC_IEEE_EXCEPTIONS          HAVE_FC_INT_QUAD             HAVE_FC_IOMSG
 
     HAVE_FC_ISO_C_BINDING  HAVE_FC_ISO_FORTRAN_2008        HAVE_FC_LONG_LINES
 
        HAVE_FC_MOVE_ALLOC  HAVE_FC_ON_THE_FLY_SHAPE           HAVE_FC_PRIVATE
 
         HAVE_FC_PROTECTED           HAVE_FC_SHIFTLR         HAVE_FC_STREAM_IO
 
            HAVE_FC_SYSTEM                HAVE_FFTW3            HAVE_FFTW3_MPI
 
          HAVE_FORTRAN2003                 HAVE_HDF5        HAVE_LIBPAW_ABINIT
 
      HAVE_LIBTETRA_ABINIT                HAVE_LIBXC        HAVE_LINALG_GEMM3M
 
     HAVE_LINALG_SCALAPACK                  HAVE_MPI                 HAVE_MPI2
 
       HAVE_MPI_IALLGATHER       HAVE_MPI_IALLREDUCE        HAVE_MPI_IALLTOALL
 
       HAVE_MPI_IALLTOALLV           HAVE_MPI_IBCAST         HAVE_MPI_IGATHERV
 
        HAVE_MPI_INTEGER16               HAVE_MPI_IO HAVE_MPI_TYPE_CREATE_S...
 
               HAVE_NETCDF       HAVE_NETCDF_FORTRAN             HAVE_OS_LINUX
 
         HAVE_TIMER_ABINIT                                                      
 ++++++++++++++++++++++++++++++++++++++++++++++++++++++++++++++++++++++++++++++

- input  file    -> run.abi
- output file    -> run.abo
- root for input  files -> ../indata_ac
- root for output files -> outdata_ac

-instrng: 30 lines of input have been read from file ../globals

-instrng: 44 lines of input have been read from file run.abi

 For atom type 1, psp file is ../Ga.psp8
 For atom type 2, psp file is ../As.psp8
  read the values zionpsp= 13.0 , pspcod=   8 , lmax=   2
  read the values zionpsp= 15.0 , pspcod=   8 , lmax=   2

 inpspheads: deduce mpsang = 3, n1xccc = 2501.

======================================================= 
 invars1m : enter jdtset= 1

 symlatt: the Bravais lattice is cF (face-centered cubic)
  xred   is defined in input file
 ingeo: takes atomic coordinates from input array xred

--- !COMMENT
src_file: m_ingeo.F90
src_line: 890
message: |
    The tolerance on symmetries =   1.000E-05 is bigger than 1.0e-8.
    In order to avoid spurious effects, the atomic coordinates have been
    symmetrized before storing them in the dataset internal variable.
    So, do not be surprised by the fact that your input variables (xcart, xred, ...)
    do not correspond exactly to the ones echoed by ABINIT, the latter being used to do the calculations.
    This is not a problem per se.
    Still, in order to avoid this symmetrization (e.g. for specific debugging/development), decrease tolsym to 1.0e-8 or lower,
    or (much preferred) use input primitive vectors that are accurate to better than 1.0e-8.
    This message will only be printed once, even if there are other datasets where tolsym is bigger than 1.0e-8.
...


 symlatt: the Bravais lattice is cF (face-centered cubic)

 symlatt: the Bravais lattice is cF (face-centered cubic)
 symspgr: spgroup= 216  F-4 3 m   (=Td^2)
 symspgr: optical characteristics = isotropic

======================================================= 
 invars1m : enter jdtset= 2

 symlatt: the Bravais lattice is cF (face-centered cubic)
  xred   is defined in input file
 ingeo: takes atomic coordinates from input array xred

 symlatt: the Bravais lattice is cF (face-centered cubic)

 symlatt: the Bravais lattice is cF (face-centered cubic)
 symspgr: spgroup= 216  F-4 3 m   (=Td^2)
 symspgr: optical characteristics = isotropic

--- !WARNING
src_file: m_mpinfo.F90
src_line: 2337
message: |
    nproc_spkpt= 256 >= nkpt= 29* nsppol= 1
    The number of processors is larger than nkpt*nsppol. This is a WASTE.
     Ignore this warning if this is not a GS run
...

 For input ecut=  4.500000E+01 best grid ngfft=      48      48      48
       max ecut=  4.990397E+01

 ==== FFT mesh ====
  FFT mesh divisions ........................    48   48   48
  Augmented FFT divisions ...................    49   49   48
  FFT algorithm .............................   312
  FFT cache size ............................    16
 getmpw: optimal value of mpw= 4405

--- !WARNING
src_file: m_mpinfo.F90
src_line: 2337
message: |
    nproc_spkpt= 256 >= nkpt= 29* nsppol= 1
    The number of processors is larger than nkpt*nsppol. This is a WASTE.
     Ignore this warning if this is not a GS run
...

 For input ecut=  4.500000E+01 best grid ngfft=      48      48      48
       max ecut=  4.990397E+01

 ==== FFT mesh ====
  FFT mesh divisions ........................    48   48   48
  Augmented FFT divisions ...................    49   49   48
  FFT algorithm .............................   312
  FFT cache size ............................    16
 getmpw: optimal value of mpw= 4405

 DATASET    1 : space group F-4 3 m (#216); Bravais cF (face-center cubic)

 getdim_nloc: deduce lmnmax  =  18, lnmax  =   6,
                      lmnmaxso=  18, lnmaxso=   6.
memory: analysis of memory needs
================================================================================
 Values of the parameters that define the memory need for DATASET  1.
     intxc =       0    ionmov =       0      iscf =       7    lmnmax =       6
     lnmax =       6     mgfft =      48  mpssoang =       3    mqgrid =    3001
     natom =       2  nloc_mem =       1    nspden =       1   nspinor =       1
    nsppol =       1      nsym =      24    n1xccc =    2501    ntypat =       2
    occopt =       1   xclevel =       2
-    mband =         480        mffmem =           1         mkmem =           1
       mpw =        4405          nfft =      110592          nkpt =          29
================================================================================
P This job should need less than                      76.069 Mbytes of memory.
  Rough estimation (10% accuracy) of disk space for files :
_ WF disk file :    935.634 Mbytes ; DEN or POT disk file :      0.846 Mbytes.
================================================================================

 Biggest array : cg(disk), with     32.2652 MBytes.

 DATASET    2 : space group F-4 3 m (#216); Bravais cF (face-center cubic)

 getdim_nloc: deduce lmnmax  =  18, lnmax  =   6,
                      lmnmaxso=  18, lnmaxso=   6.
memory: analysis of memory needs
================================================================================
 Values of the parameters that define the memory need for DATASET  2.
     intxc =       0    ionmov =       0      iscf =       7    lmnmax =       6
     lnmax =       6     mgfft =      48  mpssoang =       3    mqgrid =    3001
     natom =       2  nloc_mem =       1    nspden =       1   nspinor =       1
    nsppol =       1      nsym =      24    n1xccc =    2501    ntypat =       2
    occopt =       1   xclevel =       2
-    mband =         480        mffmem =           1         mkmem =           1
       mpw =        4405          nfft =      110592          nkpt =          29
================================================================================
P This job should need less than                      76.069 Mbytes of memory.
  Rough estimation (10% accuracy) of disk space for files :
_ WF disk file :    935.634 Mbytes ; DEN or POT disk file :      0.846 Mbytes.
================================================================================

 Biggest array : cg(disk), with     32.2652 MBytes.
--------------------------------------------------------------------------------
------------- Echo of variables that govern the present computation ------------
--------------------------------------------------------------------------------
-
- outvars: echo of selected default values                                      
-   iomode0 =  0 , fftalg0 =312 , wfoptalg0 =  0
-
- outvars: echo of global parameters not present in the input file              
-  max_nthreads =    0
-
 -outvars: echo values of preprocessed input variables --------
 
 These variables are accessible in NetCDF format (outdata_ac_OUT.nc)

            acell      1.0673173199E+01  1.0673173199E+01  1.0673173199E+01 Bohr
              amu      6.97230000E+01  7.49215900E+01
             bdgw          12      26      12      26
           diemac      1.20000000E+01
             ecut      4.50000000E+01 Hartree
          ecuteps      1.20000000E+01 Hartree
         ecutsigx      3.60000000E+01 Hartree
          ecutwfn      4.50000000E+01 Hartree
-          fftalg         312
           getscr1          0
           getscr2         -1
           istwfk        1    0    0    0    1    0    0    0    0    0
                         0    0    0    0    0    0    0    0    0    0
                         1    0    0    0    0    0    0    0    0
              ixc          11
           jdtset        1    2
              kpt      0.00000000E+00  0.00000000E+00  0.00000000E+00
                       1.25000000E-01  0.00000000E+00  0.00000000E+00
                       2.50000000E-01  0.00000000E+00  0.00000000E+00
                       3.75000000E-01  0.00000000E+00  0.00000000E+00
                       5.00000000E-01  0.00000000E+00  0.00000000E+00
                       1.25000000E-01  1.25000000E-01  0.00000000E+00
                       2.50000000E-01  1.25000000E-01  0.00000000E+00
                       3.75000000E-01  1.25000000E-01  0.00000000E+00
                       5.00000000E-01  1.25000000E-01  0.00000000E+00
                      -3.75000000E-01  1.25000000E-01  0.00000000E+00
                      -2.50000000E-01  1.25000000E-01  0.00000000E+00
                      -1.25000000E-01  1.25000000E-01  0.00000000E+00
                       2.50000000E-01  2.50000000E-01  0.00000000E+00
                       3.75000000E-01  2.50000000E-01  0.00000000E+00
                       5.00000000E-01  2.50000000E-01  0.00000000E+00
                      -3.75000000E-01  2.50000000E-01  0.00000000E+00
                      -2.50000000E-01  2.50000000E-01  0.00000000E+00
                       3.75000000E-01  3.75000000E-01  0.00000000E+00
                       5.00000000E-01  3.75000000E-01  0.00000000E+00
                      -3.75000000E-01  3.75000000E-01  0.00000000E+00
                       5.00000000E-01  5.00000000E-01  0.00000000E+00
                       3.75000000E-01  2.50000000E-01  1.25000000E-01
                       5.00000000E-01  2.50000000E-01  1.25000000E-01
                      -3.75000000E-01  2.50000000E-01  1.25000000E-01
                       5.00000000E-01  3.75000000E-01  1.25000000E-01
                      -3.75000000E-01  3.75000000E-01  1.25000000E-01
                      -2.50000000E-01  3.75000000E-01  1.25000000E-01
                      -3.75000000E-01  5.00000000E-01  1.25000000E-01
                      -2.50000000E-01  5.00000000E-01  2.50000000E-01
            kptgw      0.00000000E+00  0.00000000E+00  0.00000000E+00
                       5.00000000E-01  5.00000000E-01  0.00000000E+00
         kptrlatt        8    0    0      0    8    0      0    0    8
          kptrlen      6.03765852E+01
P           mkmem           1
            natom           2
            nband         480
           ndtset           2
            ngfft          48      48      48
             nkpt          29
           nkptgw           2
           npweps         609
          npwsigx        3119
           npwwfn        4381
            nstep          50
             nsym          24
           ntypat           2
              occ      2.000000  2.000000  2.000000  2.000000  2.000000  2.000000
                       2.000000  2.000000  2.000000  2.000000  2.000000  2.000000
                       2.000000  2.000000  0.000000  0.000000  0.000000  0.000000
                       0.000000  0.000000  0.000000  0.000000  0.000000  0.000000
                       0.000000  0.000000  0.000000  0.000000  0.000000  0.000000
                       0.000000  0.000000  0.000000  0.000000  0.000000  0.000000
                       0.000000  0.000000  0.000000  0.000000  0.000000  0.000000
                       0.000000  0.000000  0.000000  0.000000  0.000000  0.000000
                       0.000000  0.000000  0.000000  0.000000  0.000000  0.000000
                       0.000000  0.000000  0.000000  0.000000  0.000000  0.000000
                       0.000000  0.000000  0.000000  0.000000  0.000000  0.000000
                       0.000000  0.000000  0.000000  0.000000  0.000000  0.000000
                       0.000000  0.000000  0.000000  0.000000  0.000000  0.000000
                       0.000000  0.000000  0.000000  0.000000  0.000000  0.000000
                       0.000000  0.000000  0.000000  0.000000  0.000000  0.000000
                       0.000000  0.000000  0.000000  0.000000  0.000000  0.000000
                       0.000000  0.000000  0.000000  0.000000  0.000000  0.000000
                       0.000000  0.000000  0.000000  0.000000  0.000000  0.000000
                       0.000000  0.000000  0.000000  0.000000  0.000000  0.000000
                       0.000000  0.000000  0.000000  0.000000  0.000000  0.000000
                       0.000000  0.000000  0.000000  0.000000  0.000000  0.000000
                       0.000000  0.000000  0.000000  0.000000  0.000000  0.000000
                       0.000000  0.000000  0.000000  0.000000  0.000000  0.000000
                       0.000000  0.000000  0.000000  0.000000  0.000000  0.000000
                       0.000000  0.000000  0.000000  0.000000  0.000000  0.000000
                       0.000000  0.000000  0.000000  0.000000  0.000000  0.000000
                       0.000000  0.000000  0.000000  0.000000  0.000000  0.000000
                       0.000000  0.000000  0.000000  0.000000  0.000000  0.000000
                       0.000000  0.000000  0.000000  0.000000  0.000000  0.000000
                       0.000000  0.000000  0.000000  0.000000  0.000000  0.000000
                       0.000000  0.000000  0.000000  0.000000  0.000000  0.000000
                       0.000000  0.000000  0.000000  0.000000  0.000000  0.000000
                       0.000000  0.000000  0.000000  0.000000  0.000000  0.000000
                       0.000000  0.000000  0.000000  0.000000  0.000000  0.000000
                       0.000000  0.000000  0.000000  0.000000  0.000000  0.000000
                       0.000000  0.000000  0.000000  0.000000  0.000000  0.000000
                       0.000000  0.000000  0.000000  0.000000  0.000000  0.000000
                       0.000000  0.000000  0.000000  0.000000  0.000000  0.000000
                       0.000000  0.000000  0.000000  0.000000  0.000000  0.000000
                       0.000000  0.000000  0.000000  0.000000  0.000000  0.000000
                       0.000000  0.000000  0.000000  0.000000  0.000000  0.000000
                       0.000000  0.000000  0.000000  0.000000  0.000000  0.000000
                       0.000000  0.000000  0.000000  0.000000  0.000000  0.000000
                       0.000000  0.000000  0.000000  0.000000  0.000000  0.000000
                       0.000000  0.000000  0.000000  0.000000  0.000000  0.000000
                       0.000000  0.000000  0.000000  0.000000  0.000000  0.000000
                       0.000000  0.000000  0.000000  0.000000  0.000000  0.000000
                       0.000000  0.000000  0.000000  0.000000  0.000000  0.000000
                       0.000000  0.000000  0.000000  0.000000  0.000000  0.000000
                       0.000000  0.000000  0.000000  0.000000  0.000000  0.000000
                       0.000000  0.000000  0.000000  0.000000  0.000000  0.000000
                       0.000000  0.000000  0.000000  0.000000  0.000000  0.000000
                       0.000000  0.000000  0.000000  0.000000  0.000000  0.000000
                       0.000000  0.000000  0.000000  0.000000  0.000000  0.000000
                       0.000000  0.000000  0.000000  0.000000  0.000000  0.000000
                       0.000000  0.000000  0.000000  0.000000  0.000000  0.000000
                       0.000000  0.000000  0.000000  0.000000  0.000000  0.000000
                       0.000000  0.000000  0.000000  0.000000  0.000000  0.000000
                       0.000000  0.000000  0.000000  0.000000  0.000000  0.000000
                       0.000000  0.000000  0.000000  0.000000  0.000000  0.000000
                       0.000000  0.000000  0.000000  0.000000  0.000000  0.000000
                       0.000000  0.000000  0.000000  0.000000  0.000000  0.000000
                       0.000000  0.000000  0.000000  0.000000  0.000000  0.000000
                       0.000000  0.000000  0.000000  0.000000  0.000000  0.000000
                       0.000000  0.000000  0.000000  0.000000  0.000000  0.000000
                       0.000000  0.000000  0.000000  0.000000  0.000000  0.000000
                       0.000000  0.000000  0.000000  0.000000  0.000000  0.000000
                       0.000000  0.000000  0.000000  0.000000  0.000000  0.000000
                       0.000000  0.000000  0.000000  0.000000  0.000000  0.000000
                       0.000000  0.000000  0.000000  0.000000  0.000000  0.000000
                       0.000000  0.000000  0.000000  0.000000  0.000000  0.000000
                       0.000000  0.000000  0.000000  0.000000  0.000000  0.000000
                       0.000000  0.000000  0.000000  0.000000  0.000000  0.000000
                       0.000000  0.000000  0.000000  0.000000  0.000000  0.000000
                       0.000000  0.000000  0.000000  0.000000  0.000000  0.000000
                       0.000000  0.000000  0.000000  0.000000  0.000000  0.000000
                       0.000000  0.000000  0.000000  0.000000  0.000000  0.000000
                       0.000000  0.000000  0.000000  0.000000  0.000000  0.000000
                       0.000000  0.000000  0.000000  0.000000  0.000000  0.000000
                       0.000000  0.000000  0.000000  0.000000  0.000000  0.000000
        optdriver1          3
        optdriver2          4
            rprim      0.0000000000E+00  5.0000000000E-01  5.0000000000E-01
                       5.0000000000E-01  0.0000000000E+00  5.0000000000E-01
                       5.0000000000E-01  5.0000000000E-01  0.0000000000E+00
          spgroup         216
           symrel      1  0  0   0  1  0   0  0  1       0 -1  1   0 -1  0   1 -1  0
                      -1  0  0  -1  0  1  -1  1  0       0  1 -1   1  0 -1   0  0 -1
                      -1  0  0  -1  1  0  -1  0  1       0 -1  1   1 -1  0   0 -1  0
                       1  0  0   0  0  1   0  1  0       0  1 -1   0  0 -1   1  0 -1
                      -1  0  1  -1  1  0  -1  0  0       0 -1  0   1 -1  0   0 -1  1
                       1  0 -1   0  0 -1   0  1 -1       0  1  0   0  0  1   1  0  0
                       1  0 -1   0  1 -1   0  0 -1       0 -1  0   0 -1  1   1 -1  0
                      -1  0  1  -1  0  0  -1  1  0       0  1  0   1  0  0   0  0  1
                       0  0 -1   0  1 -1   1  0 -1       1 -1  0   0 -1  1   0 -1  0
                       0  0  1   1  0  0   0  1  0      -1  1  0  -1  0  0  -1  0  1
                       0  0  1   0  1  0   1  0  0       1 -1  0   0 -1  0   0 -1  1
                       0  0 -1   1  0 -1   0  1 -1      -1  1  0  -1  0  1  -1  0  0
           timopt          -1
            typat      1  2
              wtk        0.00195    0.01563    0.01563    0.01563    0.00781    0.01172
                         0.04688    0.04688    0.04688    0.04688    0.04688    0.02344
                         0.01172    0.04688    0.04688    0.04688    0.02344    0.01172
                         0.04688    0.02344    0.00586    0.04688    0.09375    0.04688
                         0.04688    0.09375    0.04688    0.02344    0.01172
           xangst      0.0000000000E+00  0.0000000000E+00  0.0000000000E+00
                       1.4120000000E+00  1.4120000000E+00  1.4120000000E+00
            xcart      0.0000000000E+00  0.0000000000E+00  0.0000000000E+00
                       2.6682932996E+00  2.6682932996E+00  2.6682932996E+00
             xred      0.0000000000E+00  0.0000000000E+00  0.0000000000E+00
                       2.5000000000E-01  2.5000000000E-01  2.5000000000E-01
            znucl       31.00000   33.00000

================================================================================

 chkinp: Checking input parameters for consistency, jdtset=   1.

 chkinp: Checking input parameters for consistency, jdtset=   2.
 DATA TYPE INFORMATION: 
 REAL:      Data type name: REAL(DP) 
            Kind value:      8
            Precision:      15
            Smallest nonnegligible quantity relative to 1: 0.22204460E-015
            Smallest positive number:                      0.22250739E-307
            Largest representable number:                  0.17976931E+309
 INTEGER:   Data type name: INTEGER(default) 
            Kind value: 4
            Bit size:   32
            Largest representable number: 2147483647
 LOGICAL:   Data type name: LOGICAL 
            Kind value: 4
 CHARACTER: Data type name: CHARACTER             Kind value: 1

  ==== OpenMP parallelism is OFF ====
 
  ==== Using MPI-2 specifications ==== 
  MPI-IO support is ON
  xmpi_tag_ub ................     33554431
  xmpi_bsize_ch ..............            1
  xmpi_bsize_int .............            4
  xmpi_bsize_sp ..............            4
  xmpi_bsize_dp ..............            8
  xmpi_bsize_spc .............            8
  xmpi_bsize_dpc .............           16
  xmpio_bsize_frm ............            4
  xmpi_address_kind ..........            8
  xmpi_offset_kind ...........            8
  MPI_WTICK ..................    2.0000000000000000E-008

================================================================================
== DATASET  1 ==================================================================
-   mpi_nproc: 256, omp_nthreads: -1 (-1 if OMP is not activated)


--- !COMMENT
src_file: m_xgScalapack.F90
src_line: 230
message: |
    xgScalapack in auto mode
...

 mkfilename: getwfk from: ../outdata_gs_DS2_WFK


 getdim_nloc: deduce lmnmax  =  18, lnmax  =   6,
                      lmnmaxso=  18, lnmaxso=   6.
 Exchange-correlation functional for the present dataset will be:
  GGA: Perdew-Burke-Ernzerhof functional - ixc=11
 Citation for XC functional:
  J.P.Perdew, K.Burke, M.Ernzerhof, PRL 77, 3865 (1996)

 SCREENING: Calculation of the susceptibility and dielectric matrices 

 Based on a program developped by R.W. Godby, V. Olevano, G. Onida, and L. Reining.
 Incorporated in ABINIT by V. Olevano, G.-M. Rignanese, and M. Torrent.
.Using single precision arithmetic ; gwpc =  4

 Unit cell volume ucvol=  3.0396297E+02 bohr^3
 Angles (23,13,12)=  6.00000000E+01  6.00000000E+01  6.00000000E+01 degrees

 getcut: wavevector=  0.0000  0.0000  0.0000  ngfft=  48  48  48
         ecut(hartree)=     45.000   => boxcut(ratio)=   2.10616

 ==== Dense FFT mesh used for densities and potentials ====
  FFT mesh divisions ........................    48   48   48
  Augmented FFT divisions ...................    49   49   48
  FFT algorithm .............................   312
  FFT cache size ............................    16
- pspini: atom type   1  psp file is ../Ga.psp8
- pspatm: opening atomic psp file    ../Ga.psp8
- Ga    ONCVPSP-3.2.3.1  r_core=   1.66857   1.75011   1.90252
- 31.00000  13.00000    170504                znucl, zion, pspdat
    8   11    2    4       600   0.00000      pspcod,pspxc,lmax,lloc,mmax,r2well
    5.99000000000000    5.00000000000000    0.00000000000000   rchrg,fchrg,qchrg
     nproj     2     2     2
     extension_switch     1
  valence charge (before rescaling) integrates to:    12.923526143440421     
  pspatm : epsatm=   24.69408336
         --- l  ekb(1:nproj) -->
             0    7.029782    1.144675
             1    6.805229    1.288163
             2   -8.378254   -2.820764
 pspatm: atomic psp has been read  and splines computed

- pspini: atom type   2  psp file is ../As.psp8
- pspatm: opening atomic psp file    ../As.psp8
- As    ONCVPSP-3.2.3.1  r_core=   1.76603   1.70395   1.80867
- 33.00000  15.00000    170703                znucl, zion, pspdat
    8   11    2    4       600   0.00000      pspcod,pspxc,lmax,lloc,mmax,r2well
    5.99000000000000    5.00000000000000    0.00000000000000   rchrg,fchrg,qchrg
     nproj     2     2     2
     extension_switch     1
  valence charge (before rescaling) integrates to:    14.967661361308423     
  pspatm : epsatm=   28.90894586
         --- l  ekb(1:nproj) -->
             0    8.305110    0.874814
             1    4.929784    0.754498
             2  -10.035573   -4.078419
 pspatm: atomic psp has been read  and splines computed

   1.50088482E+03                                ecore*ucvol(ha*bohr**3)
 ==== Info on pseudopotentials ====
  Norm-conserving pseudopotentials
  Number of pseudopotentials ..    2
  Number of types of atoms   ..    2
  Scalar calculation (no spin-orbit term)
  Nonlocal part applied using Legendre polynomials
  Max number of non-local projectors over l and type   2
  Highest angular momentum +1 .......   3
  Max number of (l,n)   components ..   6
  Max number of (l,m,n) components ..   6

 Pseudo-Core Charge Info: 
   Number of radial points for pseudo-core charge .. 2501
   XC core-correction treatment (optnlxccc) ........    1
   Radius for pseudo-core charge for each type ..... 

  - Atom type    1 has pseudo-core radius ..  5.9900
  - Atom type    2 has pseudo-core radius ..  5.9900

 Info on the Q-grid used for form factors in spline form: 
   Number of q-points for radial functions ffspl ..   3001
   Number of q-points for vlspl ...................   3001
   vloc is computed in Reciprocal Space
   model core charge treated in real-space

  XC functional for type 1 is 11
  Pseudo valence available: yes
  XC functional for type 2 is 11
  Pseudo valence available: yes


 GW calculation type              =    0
 zcut to avoid poles in chi0 [eV] =   0.100000

 Reading eigenvalues from: ../outdata_gs_DS2_WFK , with iomode: IO_MODE_FORTRAN
 wfk_read_eigenvalues_io , wall:  6.20 [s] , cpu:  3.33 [s] <<< TIME
 wfk_read_eigenvalues , wall:  6.22 [s] , cpu:  3.35 [s] <<< TIME

 Sorting g-vecs for an output of states on an unique "big" PW basis.
 Since the number of g's to be written on file
 was 0 or too large, it has been set to the max. value.,
 computed from the union of the sets of G vectors for the different k-points.
 Number of G-vectors is:  5425

  ==== Info on the Cryst% object ====
 Real(R)+Recip(G) space primitive vectors, cartesian coordinates (Bohr,Bohr^-1):
 R(1)=  0.0000000  5.3365866  5.3365866  G(1)= -0.0936928  0.0936928  0.0936928
 R(2)=  5.3365866  0.0000000  5.3365866  G(2)=  0.0936928 -0.0936928  0.0936928
 R(3)=  5.3365866  5.3365866  0.0000000  G(3)=  0.0936928  0.0936928 -0.0936928
 Unit cell volume ucvol=  3.0396297E+02 bohr^3
 Angles (23,13,12)=  6.00000000E+01  6.00000000E+01  6.00000000E+01 degrees
 Time-reversal symmetry is present
 Reduced atomic positions [iatom, xred, symbol]:
    1)    0.0000000  0.0000000  0.0000000  Ga
    2)    0.2500000  0.2500000  0.2500000  As
 ==== K-mesh for the wavefunctions ====
 Number of points in the irreducible wedge :    29
 Reduced coordinates and weights : 

     1)     0.00000000E+00  0.00000000E+00  0.00000000E+00       0.00195
     2)     1.25000000E-01  0.00000000E+00  0.00000000E+00       0.01563
     3)     2.50000000E-01  0.00000000E+00  0.00000000E+00       0.01563
     4)     3.75000000E-01  0.00000000E+00  0.00000000E+00       0.01563
     5)     5.00000000E-01  0.00000000E+00  0.00000000E+00       0.00781
     6)     1.25000000E-01  1.25000000E-01  0.00000000E+00       0.01172
     7)     2.50000000E-01  1.25000000E-01  0.00000000E+00       0.04688
     8)     3.75000000E-01  1.25000000E-01  0.00000000E+00       0.04688
     9)     5.00000000E-01  1.25000000E-01  0.00000000E+00       0.04688
    10)    -3.75000000E-01  1.25000000E-01  0.00000000E+00       0.04688
    11)    -2.50000000E-01  1.25000000E-01  0.00000000E+00       0.04688
    12)    -1.25000000E-01  1.25000000E-01  0.00000000E+00       0.02344
    13)     2.50000000E-01  2.50000000E-01  0.00000000E+00       0.01172
    14)     3.75000000E-01  2.50000000E-01  0.00000000E+00       0.04688
    15)     5.00000000E-01  2.50000000E-01  0.00000000E+00       0.04688
    16)    -3.75000000E-01  2.50000000E-01  0.00000000E+00       0.04688
    17)    -2.50000000E-01  2.50000000E-01  0.00000000E+00       0.02344
    18)     3.75000000E-01  3.75000000E-01  0.00000000E+00       0.01172
    19)     5.00000000E-01  3.75000000E-01  0.00000000E+00       0.04688
    20)    -3.75000000E-01  3.75000000E-01  0.00000000E+00       0.02344
    21)     5.00000000E-01  5.00000000E-01  0.00000000E+00       0.00586
    22)     3.75000000E-01  2.50000000E-01  1.25000000E-01       0.04688
    23)     5.00000000E-01  2.50000000E-01  1.25000000E-01       0.09375
    24)    -3.75000000E-01  2.50000000E-01  1.25000000E-01       0.04688
    25)     5.00000000E-01  3.75000000E-01  1.25000000E-01       0.04688
    26)    -3.75000000E-01  3.75000000E-01  1.25000000E-01       0.09375
    27)    -2.50000000E-01  3.75000000E-01  1.25000000E-01       0.04688
    28)    -3.75000000E-01  5.00000000E-01  1.25000000E-01       0.02344
    29)    -2.50000000E-01  5.00000000E-01  2.50000000E-01       0.01172

 Together with 24 symmetry operations and time-reversal symmetry 
 yields   512 points in the full Brillouin Zone.


 ==== Q-mesh for the screening function ====
 Number of points in the irreducible wedge :    29
 Reduced coordinates and weights : 

     1)     0.00000000E+00  0.00000000E+00  0.00000000E+00       0.00195
     2)     1.25000000E-01  0.00000000E+00  0.00000000E+00       0.01563
     3)     2.50000000E-01  0.00000000E+00  0.00000000E+00       0.01563
     4)     3.75000000E-01  0.00000000E+00  0.00000000E+00       0.01563
     5)     5.00000000E-01  0.00000000E+00  0.00000000E+00       0.00781
     6)     1.25000000E-01  1.25000000E-01  0.00000000E+00       0.01172
     7)     2.50000000E-01  1.25000000E-01  0.00000000E+00       0.04688
     8)     3.75000000E-01  1.25000000E-01  0.00000000E+00       0.04688
     9)     5.00000000E-01  1.25000000E-01  0.00000000E+00       0.04688
    10)    -3.75000000E-01  1.25000000E-01  0.00000000E+00       0.04688
    11)    -2.50000000E-01  1.25000000E-01  0.00000000E+00       0.04688
    12)    -1.25000000E-01  1.25000000E-01  0.00000000E+00       0.02344
    13)     2.50000000E-01  2.50000000E-01  0.00000000E+00       0.01172
    14)     3.75000000E-01  2.50000000E-01  0.00000000E+00       0.04688
    15)     5.00000000E-01  2.50000000E-01  0.00000000E+00       0.04688
    16)    -3.75000000E-01  2.50000000E-01  0.00000000E+00       0.04688
    17)    -2.50000000E-01  2.50000000E-01  0.00000000E+00       0.02344
    18)     3.75000000E-01  3.75000000E-01  0.00000000E+00       0.01172
    19)     5.00000000E-01  3.75000000E-01  0.00000000E+00       0.04688
    20)    -3.75000000E-01  3.75000000E-01  0.00000000E+00       0.02344
    21)     5.00000000E-01  5.00000000E-01  0.00000000E+00       0.00586
    22)     3.75000000E-01  2.50000000E-01  1.25000000E-01       0.04688
    23)     5.00000000E-01  2.50000000E-01  1.25000000E-01       0.09375
    24)    -3.75000000E-01  2.50000000E-01  1.25000000E-01       0.04688
    25)     5.00000000E-01  3.75000000E-01  1.25000000E-01       0.04688
    26)    -3.75000000E-01  3.75000000E-01  1.25000000E-01       0.09375
    27)    -2.50000000E-01  3.75000000E-01  1.25000000E-01       0.04688
    28)    -3.75000000E-01  5.00000000E-01  1.25000000E-01       0.02344
    29)    -2.50000000E-01  5.00000000E-01  2.50000000E-01       0.01172

 Together with 24 symmetry operations and time-reversal symmetry 
 yields   512 points in the full Brillouin Zone.


 Optimal value for ng0sh: [2, 1, 1]
  Due to umklapp processes : ecutepspg0=    11.782883307834510     

 setmesh: npwwfn        =     4381; Max (m1,m2,m3)   =     11    11    11
          npweps/npwsigx=      609; Max (mm1,mm2,mm3)=      7     6     6
          mG0 added     =   2  1  1
 calculated ecutwfn          =  44.879 [Ha] 
 calculated ecutsigx/ecuteps =  11.783 [Ha]
 using method =  2 with ecuteff = 102.653 [Ha]
 Finding a FFT mesh compatible with all the symmetries
 setmesh: divisor mesh 1 1 1
 setmesh: FFT mesh size selected  =    36x   36x   36
          total number of points  =        46656

vcp%i_sz 8.279113E+03

 vcoul_init : cutoff-mode = AUXILIARY_FUNCTION
 q-points for optical limit:   1
     1)      0.000010    0.000020    0.000030

 ==== FFT mesh used for oscillator strengths ====
  FFT mesh divisions ........................    36   36   36
  Augmented FFT divisions ...................    37   37   36
  FFT algorithm .............................   312
  FFT cache size ............................    16
 Top of valence:   4.0449 (eV)
 Bottom of conduction:   4.5834 (eV)
 Fundamental gap:  0.5385 (eV)

 Fermi level: 4.3142  (eV) 

 Memory needed for Fourier components u(G):     15.6 [Mb] <<< MEM
 Storing wavefunctions in single precision as `enable_gw_dpc="no"`
 Memory needed for real-space u(r):    165.2 [Mb] <<< MEM
 Memory needed for bks_tab:      3.4 [Mb] <<< MEM
 wfd_init , wall:  0.08 [s] , cpu:  0.08 [s] <<< TIME
 ==== Info on the Wfd% object ====
  Number of irreducible k-points ........ 29
  Number of spinorial components ........ 1
  Number of spin-density components ..... 1
  Number of spin polarizations .......... 1
  Plane wave cutoff energy ..............  45.0
  Max number of G-vectors ............... 4405
  Total number of FFT points ............ 46656
  Number of FFT points treated by me .... 46656


 ==== FFT mesh for wavefunctions ====
  FFT mesh divisions ........................    36   36   36
  Augmented FFT divisions ...................    37   37   36
  FFT algorithm .............................   312
  FFT cache size ............................    16

 Total number of (b,k,s) states stored by this rank: 464
 Memory allocated for Fourier components u(G):     15.6 [Mb] <<< MEM
 Memory allocated for real-space u(r):      0.0 [Mb] <<< MEM
 Memory needed for wfd%s datastructure:      0.0 [Mb] <<< MEM
 Memory needed for wfd%s(0)%k datastructure:      0.0 [Mb] <<< MEM
 Memory allocated for Kdata array:      0.0 [Mb] <<< MEM



 wfd_read_wfk: Reading file: ../outdata_gs_DS2_WFK  with iomode: IO_MODE_MPI , master_only: yes
 If MPI-IO is too slow, use the command line option `abinit --enforce-fortran-io ...` 
  to make the master proc read data with Fortran-IO and then broadcast (requires more memory)
 About to read: 464  (b, k, s) states in total.
 For spin: 1 , will read: 29  k-points out of: 29
    Reading kpt [1/29] spin [1/1] , wall:  0.26 [s] , cpu:  0.26 [s] <<< TIME
    Reading kpt [2/29] spin [1/1] , wall:  0.29 [s] , cpu:  0.29 [s] <<< TIME
    Reading kpt [3/29] spin [1/1] , wall:  0.25 [s] , cpu:  0.25 [s] <<< TIME
    Reading kpt [4/29] spin [1/1] , wall:  0.29 [s] , cpu:  0.29 [s] <<< TIME
    Reading kpt [5/29] spin [1/1] , wall:  0.29 [s] , cpu:  0.29 [s] <<< TIME
    Reading kpt [6/29] spin [1/1] , wall:  0.29 [s] , cpu:  0.29 [s] <<< TIME
    Reading kpt [7/29] spin [1/1] , wall:  0.29 [s] , cpu:  0.29 [s] <<< TIME
    Reading kpt [8/29] spin [1/1] , wall:  0.29 [s] , cpu:  0.29 [s] <<< TIME
    Reading kpt [9/29] spin [1/1] , wall:  0.26 [s] , cpu:  0.26 [s] <<< TIME
    Reading kpt [10/29] spin [1/1] , wall:  0.29 [s] , cpu:  0.29 [s] <<< TIME
 WFK IO , wall:  7.21 [s] , cpu:  7.20 [s] <<< TIME


 planewave contribution to nelect:   28.0000
 Number of electrons calculated from density =   28.0000; Expected =   28.0000
 average of density, n =  0.092116
 r_s =    1.3736
 omega_plasma =   29.2768 [eV]

 Total charge density [el/Bohr^3]
)     Maximum=    2.4085E+00  at reduced coord.    0.2708    0.2708    0.3125
)     Minimum=    5.2503E-05  at reduced coord.    0.0000    0.0000    0.0000
   Integrated=    2.8000E+01

 1/G**2 cut-off applied in the following step : cutoff-mode = CRYSTAL

 1/G**2 cut-off applied in the following step : cutoff-mode = CRYSTAL

 1/G**2 cut-off applied in the following step : cutoff-mode = CRYSTAL

 calculating chi0 at frequencies [eV] :
  1    0.000000E+00    0.000000E+00
  2    0.000000E+00    2.927684E+01
 Memory required for chi0 matrix=          5.7 [Mb].


--------------------------------------------------------------------------------
  q-point number  1        q = ( 0.000000, 0.000000, 0.000000) [r.l.u.]
--------------------------------------------------------------------------------
 Q-points for long wave-length limit. #   1
     1)      0.000010    0.000020    0.000030

 Using spectral method for the imaginary part =  0
 Using symmetries to sum only over the IBZ_q  =  1
 Using faster algorithm based on time reversal symmetry.
 Memory needed for bbp_ks_distrb: 450.0  [Mb] <<< MEM
 Will sum 812 (b,b',k,s) states in chi0q0.
 Calculating chi0(q=(0,0,0),omega,G,G")

 ==== Little Group Info ==== 
  External point: [ 0.0000E+00,  0.0000E+00,  0.0000E+00]
  Number of points in the IBZ defined by little group:  29/512
  Number of operations in the little group: 48/24
  No time-reversal symmetry with zero umklapp: 24
  No time-reversal symmetry with non-zero umklapp:  0

  time-reversal symmetry with zero umklapp: 24
  time-reversal symmetry with non-zero umklapp:  0

 Calculation status: 29  k-points to be completed
 ik=    1/ 512 spin= 1 done by mpi rank:  0
 ik=    2/ 512 spin= 1 done by mpi rank:  0
 ik=   10/ 512 spin= 1 done by mpi rank:  0
 ik=   18/ 512 spin= 1 done by mpi rank:  0
 ik=   26/ 512 spin= 1 done by mpi rank:  0
 ik=   30/ 512 spin= 1 done by mpi rank:  0
 ik=   36/ 512 spin= 1 done by mpi rank:  0
 ik=   60/ 512 spin= 1 done by mpi rank:  0
 ik=   84/ 512 spin= 1 done by mpi rank:  0
 ik=  108/ 512 spin= 1 done by mpi rank:  0
 ik=  132/ 512 spin= 1 done by mpi rank:  0
 ik=  156/ 512 spin= 1 done by mpi rank:  0
 ik=  168/ 512 spin= 1 done by mpi rank:  0
 ik=  174/ 512 spin= 1 done by mpi rank:  0
 ik=  198/ 512 spin= 1 done by mpi rank:  0
 ik=  222/ 512 spin= 1 done by mpi rank:  0
 ik=  246/ 512 spin= 1 done by mpi rank:  0
 ik=  258/ 512 spin= 1 done by mpi rank:  0
 ik=  264/ 512 spin= 1 done by mpi rank:  0
 ik=  288/ 512 spin= 1 done by mpi rank:  0
 ik=  300/ 512 spin= 1 done by mpi rank:  0
 ik=  303/ 512 spin= 1 done by mpi rank:  0
 ik=  327/ 512 spin= 1 done by mpi rank:  0
 ik=  375/ 512 spin= 1 done by mpi rank:  0
 ik=  399/ 512 spin= 1 done by mpi rank:  0
 ik=  423/ 512 spin= 1 done by mpi rank:  0
 ik=  471/ 512 spin= 1 done by mpi rank:  0
 ik=  495/ 512 spin= 1 done by mpi rank:  0
 ik=  507/ 512 spin= 1 done by mpi rank:  0
 cpu_time =       6.2, wall_time =       6.2
  chi0(G,G') at the    1 th omega   0.0000   0.0000 [eV]
  chi0(q =  1, omega =   1, G,G')
       1       2       3       4       5       6       7       8       9
    1  -0.000   0.000  -0.000   0.000  -0.000  -0.000   0.000  -0.000   0.000
        0.000   0.000  -0.000   0.000  -0.000   0.000  -0.000   0.000  -0.000

    2   0.000 -19.807   0.047   0.047   0.047  -0.339   0.665   0.665   0.665
       -0.000   0.000  -0.000  -0.000   0.000  -3.416  -0.552  -0.552  -0.552

    3  -0.000   0.047 -19.807   0.047   0.047   0.665  -0.339   0.665   0.665
        0.000   0.000   0.000   0.000  -0.000  -0.552  -3.416  -0.552  -0.552

    4   0.000   0.047   0.047 -19.807   0.047   0.665   0.665  -0.339   0.665
       -0.000   0.000  -0.000   0.000  -0.000  -0.552  -0.552  -3.416  -0.552

    5  -0.000   0.047   0.047   0.047 -19.807   0.665   0.665   0.665  -0.339
        0.000  -0.000   0.000   0.000   0.000  -0.552  -0.552  -0.552  -3.416

    6  -0.000  -0.339   0.665   0.665   0.665 -19.807   0.047   0.047   0.047
       -0.000   3.416   0.552   0.552   0.552   0.000  -0.000  -0.000  -0.000

    7   0.000   0.665  -0.339   0.665   0.665   0.047 -19.807   0.047   0.047
        0.000   0.552   3.416   0.552   0.552   0.000   0.000  -0.000  -0.000

    8  -0.000   0.665   0.665  -0.339   0.665   0.047   0.047 -19.807   0.047
       -0.000   0.552   0.552   3.416   0.552   0.000   0.000   0.000   0.000

    9   0.000   0.665   0.665   0.665  -0.339   0.047   0.047   0.047 -19.807
        0.000   0.552   0.552   0.552   3.416   0.000   0.000  -0.000   0.000

  chi0(G,G') at the    2 th omega   0.0000  29.2768 [eV]
  chi0(q =  1, omega =   2, G,G')
       1       2       3       4       5       6       7       8       9
    1  -0.000   0.000  -0.000   0.000  -0.000  -0.000   0.000  -0.000   0.000
       -0.000   0.000  -0.000   0.000  -0.000   0.000  -0.000   0.000  -0.000

    2   0.000  -6.464   0.532   0.532   0.532   0.319  -0.044  -0.044  -0.044
       -0.000   0.000   0.000  -0.000  -0.000  -0.262  -0.054  -0.054  -0.054

    3  -0.000   0.532  -6.464   0.532   0.532  -0.044   0.319  -0.044  -0.044
        0.000  -0.000   0.000  -0.000  -0.000  -0.054  -0.262  -0.054  -0.054

    4   0.000   0.532   0.532  -6.464   0.532  -0.044  -0.044   0.319  -0.044
       -0.000   0.000   0.000   0.000  -0.000  -0.054  -0.054  -0.262  -0.054

    5  -0.000   0.532   0.532   0.532  -6.464  -0.044  -0.044  -0.044   0.319
        0.000   0.000   0.000   0.000   0.000  -0.054  -0.054  -0.054  -0.262

    6  -0.000   0.319  -0.044  -0.044  -0.044  -6.464   0.532   0.532   0.532
       -0.000   0.262   0.054   0.054   0.054   0.000  -0.000  -0.000  -0.000

    7   0.000  -0.044   0.319  -0.044  -0.044   0.532  -6.464   0.532   0.532
        0.000   0.054   0.262   0.054   0.054   0.000   0.000   0.000  -0.000

    8  -0.000  -0.044  -0.044   0.319  -0.044   0.532   0.532  -6.464   0.532
       -0.000   0.054   0.054   0.262   0.054   0.000  -0.000   0.000   0.000

    9   0.000  -0.044  -0.044  -0.044   0.319   0.532   0.532   0.532  -6.464
        0.000   0.054   0.054   0.054   0.262   0.000   0.000  -0.000   0.000

 Analyzing long wavelength limit for several q
 For q-point:  0.000010 0.000020 0.000030
  dielectric constant =  26.9715
  dielectric constant without local fields =  28.3607

  Average fulfillment of the sum rule on Im[epsilon] for q-point    1 :    146.25  [%]


--------------------------------------------------------------------------------
  q-point number  2        q = ( 0.125000, 0.000000, 0.000000) [r.l.u.]
--------------------------------------------------------------------------------
 Using spectral method for the imaginary part =  0
 Using symmetries to sum only over the IBZ_q  =  1
 Using faster algorithm based on time reversal symmetry.
 Memory needed for bbp_ks_distrb: 450.0  [Mb] <<< MEM
 Will sum 3360 (b,b',k,s) states in chi0.
 Calculating chi0(q,omega,G,G")

 ==== Little Group Info ==== 
  External point: [ 1.2500E-01,  0.0000E+00,  0.0000E+00]
  Number of points in the IBZ defined by little group:  120/512
  Number of operations in the little group: 6/24
  No time-reversal symmetry with zero umklapp:  6
  No time-reversal symmetry with non-zero umklapp:  0

  time-reversal symmetry with zero umklapp:  0
  time-reversal symmetry with non-zero umklapp:  0

 Calculation status: 120 k-points to be completed
 ik=    1/ 512 spin=  1 done by mpi rank:  0
 ik=    2/ 512 spin=  1 done by mpi rank:  0
 ik=    3/ 512 spin=  1 done by mpi rank:  0
 ik=    6/ 512 spin=  1 done by mpi rank:  0
 ik=    7/ 512 spin=  1 done by mpi rank:  0
 ik=   10/ 512 spin=  1 done by mpi rank:  0
 ik=   11/ 512 spin=  1 done by mpi rank:  0
 ik=   14/ 512 spin=  1 done by mpi rank:  0
 ik=   15/ 512 spin=  1 done by mpi rank:  0
 ik=   18/ 512 spin=  1 done by mpi rank:  0
 ik=   19/ 512 spin=  1 done by mpi rank:  0
 ik=   22/ 512 spin=  1 done by mpi rank:  0
 ik=   23/ 512 spin=  1 done by mpi rank:  0
 ik=   26/ 512 spin=  1 done by mpi rank:  0
 ik=   27/ 512 spin=  1 done by mpi rank:  0
 ik=   30/ 512 spin=  1 done by mpi rank:  0
 ik=   31/ 512 spin=  1 done by mpi rank:  0
 ik=   36/ 512 spin=  1 done by mpi rank:  0
 ik=   37/ 512 spin=  1 done by mpi rank:  0
 ik=   39/ 512 spin=  1 done by mpi rank:  0
 ik=   48/ 512 spin=  1 done by mpi rank:  0
 ik=   49/ 512 spin=  1 done by mpi rank:  0
 ik=   51/ 512 spin=  1 done by mpi rank:  0
 ik=   60/ 512 spin=  1 done by mpi rank:  0
 ik=   61/ 512 spin=  1 done by mpi rank:  0
 ik=   63/ 512 spin=  1 done by mpi rank:  0
 ik=   72/ 512 spin=  1 done by mpi rank:  0
 ik=   73/ 512 spin=  1 done by mpi rank:  0
 ik=   75/ 512 spin=  1 done by mpi rank:  0
 ik=   84/ 512 spin=  1 done by mpi rank:  0
 ik=   85/ 512 spin=  1 done by mpi rank:  0
 ik=   87/ 512 spin=  1 done by mpi rank:  0
 ik=   96/ 512 spin=  1 done by mpi rank:  0
 ik=   97/ 512 spin=  1 done by mpi rank:  0
 ik=   99/ 512 spin=  1 done by mpi rank:  0
 ik=  108/ 512 spin=  1 done by mpi rank:  0
 ik=  109/ 512 spin=  1 done by mpi rank:  0
 ik=  111/ 512 spin=  1 done by mpi rank:  0
 ik=  120/ 512 spin=  1 done by mpi rank:  0
 ik=  121/ 512 spin=  1 done by mpi rank:  0
 ik=  123/ 512 spin=  1 done by mpi rank:  0
 ik=  132/ 512 spin=  1 done by mpi rank:  0
 ik=  133/ 512 spin=  1 done by mpi rank:  0
 ik=  135/ 512 spin=  1 done by mpi rank:  0
 ik=  144/ 512 spin=  1 done by mpi rank:  0
 ik=  145/ 512 spin=  1 done by mpi rank:  0
 ik=  147/ 512 spin=  1 done by mpi rank:  0
 ik=  156/ 512 spin=  1 done by mpi rank:  0
 ik=  157/ 512 spin=  1 done by mpi rank:  0
 ik=  159/ 512 spin=  1 done by mpi rank:  0
 ik=  168/ 512 spin=  1 done by mpi rank:  0
 ik=  169/ 512 spin=  1 done by mpi rank:  0
 ik=  174/ 512 spin=  1 done by mpi rank:  0
 ik=  175/ 512 spin=  1 done by mpi rank:  0
 ik=  177/ 512 spin=  1 done by mpi rank:  0
 ik=  186/ 512 spin=  1 done by mpi rank:  0
 ik=  187/ 512 spin=  1 done by mpi rank:  0
 ik=  189/ 512 spin=  1 done by mpi rank:  0
 ik=  198/ 512 spin=  1 done by mpi rank:  0
 ik=  199/ 512 spin=  1 done by mpi rank:  0
 ik=  201/ 512 spin=  1 done by mpi rank:  0
 ik=  210/ 512 spin=  1 done by mpi rank:  0
 ik=  211/ 512 spin=  1 done by mpi rank:  0
 ik=  213/ 512 spin=  1 done by mpi rank:  0
 ik=  222/ 512 spin=  1 done by mpi rank:  0
 ik=  223/ 512 spin=  1 done by mpi rank:  0
 ik=  225/ 512 spin=  1 done by mpi rank:  0
 ik=  234/ 512 spin=  1 done by mpi rank:  0
 ik=  235/ 512 spin=  1 done by mpi rank:  0
 ik=  237/ 512 spin=  1 done by mpi rank:  0
 ik=  246/ 512 spin=  1 done by mpi rank:  0
 ik=  247/ 512 spin=  1 done by mpi rank:  0
 ik=  249/ 512 spin=  1 done by mpi rank:  0
 ik=  258/ 512 spin=  1 done by mpi rank:  0
 ik=  259/ 512 spin=  1 done by mpi rank:  0
 ik=  264/ 512 spin=  1 done by mpi rank:  0
 ik=  265/ 512 spin=  1 done by mpi rank:  0
 ik=  267/ 512 spin=  1 done by mpi rank:  0
 ik=  276/ 512 spin=  1 done by mpi rank:  0
 ik=  277/ 512 spin=  1 done by mpi rank:  0
 ik=  279/ 512 spin=  1 done by mpi rank:  0
 ik=  288/ 512 spin=  1 done by mpi rank:  0
 ik=  289/ 512 spin=  1 done by mpi rank:  0
 ik=  291/ 512 spin=  1 done by mpi rank:  0
 ik=  300/ 512 spin=  1 done by mpi rank:  0
 ik=  303/ 512 spin=  1 done by mpi rank:  0
 ik=  304/ 512 spin=  1 done by mpi rank:  0
 ik=  305/ 512 spin=  1 done by mpi rank:  0
 ik=  306/ 512 spin=  1 done by mpi rank:  0
 ik=  327/ 512 spin=  1 done by mpi rank:  0
 ik=  328/ 512 spin=  1 done by mpi rank:  0
 ik=  329/ 512 spin=  1 done by mpi rank:  0
 ik=  330/ 512 spin=  1 done by mpi rank:  0
 ik=  351/ 512 spin=  1 done by mpi rank:  0
 ik=  352/ 512 spin=  1 done by mpi rank:  0
 ik=  353/ 512 spin=  1 done by mpi rank:  0
 ik=  354/ 512 spin=  1 done by mpi rank:  0
 ik=  375/ 512 spin=  1 done by mpi rank:  0
 ik=  376/ 512 spin=  1 done by mpi rank:  0
 ik=  377/ 512 spin=  1 done by mpi rank:  0
 ik=  378/ 512 spin=  1 done by mpi rank:  0
 ik=  399/ 512 spin=  1 done by mpi rank:  0
 ik=  400/ 512 spin=  1 done by mpi rank:  0
 ik=  401/ 512 spin=  1 done by mpi rank:  0
 ik=  402/ 512 spin=  1 done by mpi rank:  0
 ik=  423/ 512 spin=  1 done by mpi rank:  0
 ik=  424/ 512 spin=  1 done by mpi rank:  0
 ik=  425/ 512 spin=  1 done by mpi rank:  0
 ik=  426/ 512 spin=  1 done by mpi rank:  0
 ik=  447/ 512 spin=  1 done by mpi rank:  0
 ik=  448/ 512 spin=  1 done by mpi rank:  0
 ik=  449/ 512 spin=  1 done by mpi rank:  0
 ik=  450/ 512 spin=  1 done by mpi rank:  0
 ik=  471/ 512 spin=  1 done by mpi rank:  0
 ik=  472/ 512 spin=  1 done by mpi rank:  0
 ik=  473/ 512 spin=  1 done by mpi rank:  0
 ik=  474/ 512 spin=  1 done by mpi rank:  0
 ik=  495/ 512 spin=  1 done by mpi rank:  0
 ik=  496/ 512 spin=  1 done by mpi rank:  0
 ik=  507/ 512 spin=  1 done by mpi rank:  0
 cpu_time =       9.2, wall_time =       9.2
  chi0(G,G') at the    1 th omega   0.0000   0.0000 [eV]
  chi0(q =  2, omega =   1, G,G')
       1       2       3       4       5       6       7       8       9
    1  -3.554  -0.839  -0.133  -0.133  -0.133   0.703  -0.596  -0.596  -0.596
        0.000  -1.590  -0.313  -0.313  -0.313  -1.897   1.350   1.350   1.350

    2  -0.839 -20.100  -0.465  -0.465  -0.465  -0.239   0.477   0.477   0.477
        1.590   0.000   0.144   0.144   0.144  -3.316  -0.317  -0.317  -0.317

    3  -0.133  -0.465 -19.981   0.366   0.366   0.646  -0.033   0.786   0.786
        0.313  -0.144   0.000  -0.000   0.000  -0.820  -3.102  -0.423  -0.423

    4  -0.133  -0.465   0.366 -19.981   0.366   0.646   0.786  -0.033   0.786
        0.313  -0.144   0.000   0.000  -0.000  -0.820  -0.423  -3.102  -0.423

    5  -0.133  -0.465   0.366   0.366 -19.981   0.646   0.786   0.786  -0.033
        0.313  -0.144  -0.000   0.000   0.000  -0.820  -0.423  -0.423  -3.102

    6   0.703  -0.239   0.646   0.646   0.646 -18.981   0.508   0.508   0.508
        1.897   3.316   0.820   0.820   0.820   0.000   0.188   0.188   0.188

    7  -0.596   0.477  -0.033   0.786   0.786   0.508 -20.216  -0.570  -0.570
       -1.350   0.317   3.102   0.423   0.423  -0.188   0.000  -0.000   0.000

    8  -0.596   0.477   0.786  -0.033   0.786   0.508  -0.570 -20.216  -0.570
       -1.350   0.317   0.423   3.102   0.423  -0.188   0.000   0.000   0.000

    9  -0.596   0.477   0.786   0.786  -0.033   0.508  -0.570  -0.570 -20.216
       -1.350   0.317   0.423   0.423   3.102  -0.188  -0.000  -0.000   0.000

  chi0(G,G') at the    2 th omega   0.0000  29.2768 [eV]
  chi0(q =  2, omega =   2, G,G')
       1       2       3       4       5       6       7       8       9
    1  -0.154  -0.285   0.050   0.050   0.050   0.239  -0.124  -0.124  -0.124
        0.000  -0.294   0.054   0.054   0.054  -0.252   0.128   0.128   0.128

    2  -0.285  -7.422   0.305   0.305   0.305   0.313  -0.064  -0.064  -0.064
        0.294   0.000   0.002   0.002   0.002  -0.257  -0.048  -0.048  -0.048

    3   0.050   0.305  -6.184   0.699   0.699  -0.027   0.310  -0.045  -0.045
       -0.054  -0.002   0.000   0.000  -0.000  -0.054  -0.256  -0.051  -0.051

    4   0.050   0.305   0.699  -6.184   0.699  -0.027  -0.045   0.310  -0.045
       -0.054  -0.002  -0.000   0.000  -0.000  -0.054  -0.051  -0.256  -0.051

    5   0.050   0.305   0.699   0.699  -6.184  -0.027  -0.045  -0.045   0.310
       -0.054  -0.002   0.000   0.000   0.000  -0.054  -0.051  -0.051  -0.256

    6   0.239   0.313  -0.027  -0.027  -0.027  -5.419   0.703   0.703   0.703
        0.252   0.257   0.054   0.054   0.054   0.000   0.002   0.002   0.002

    7  -0.124  -0.064   0.310  -0.045  -0.045   0.703  -6.847   0.302   0.302
       -0.128   0.048   0.256   0.051   0.051  -0.002   0.000   0.000  -0.000

    8  -0.124  -0.064  -0.045   0.310  -0.045   0.703   0.302  -6.847   0.302
       -0.128   0.048   0.051   0.256   0.051  -0.002  -0.000   0.000  -0.000

    9  -0.124  -0.064  -0.045  -0.045   0.310   0.703   0.302   0.302  -6.847
       -0.128   0.048   0.051   0.051   0.256  -0.002   0.000   0.000   0.000

  Average fulfillment of the sum rule on Im[epsilon] for q-point    2 :    182.56  [%]


--------------------------------------------------------------------------------
  q-point number  3        q = ( 0.250000, 0.000000, 0.000000) [r.l.u.]
--------------------------------------------------------------------------------
 Using spectral method for the imaginary part =  0
 Using symmetries to sum only over the IBZ_q  =  1
 Using faster algorithm based on time reversal symmetry.
 Memory needed for bbp_ks_distrb: 450.0  [Mb] <<< MEM
 Will sum 3360 (b,b',k,s) states in chi0.
 Calculating chi0(q,omega,G,G")

 ==== Little Group Info ==== 
  External point: [ 2.5000E-01,  0.0000E+00,  0.0000E+00]
  Number of points in the IBZ defined by little group:  120/512
  Number of operations in the little group: 6/24
  No time-reversal symmetry with zero umklapp:  6
  No time-reversal symmetry with non-zero umklapp:  0

  time-reversal symmetry with zero umklapp:  0
  time-reversal symmetry with non-zero umklapp:  0

 Calculation status: 120 k-points to be completed
 ik=    1/ 512 spin=  1 done by mpi rank:  0
 ik=    2/ 512 spin=  1 done by mpi rank:  0
 ik=    3/ 512 spin=  1 done by mpi rank:  0
 ik=    6/ 512 spin=  1 done by mpi rank:  0
 ik=    7/ 512 spin=  1 done by mpi rank:  0
 ik=   10/ 512 spin=  1 done by mpi rank:  0
 ik=   11/ 512 spin=  1 done by mpi rank:  0
 ik=   14/ 512 spin=  1 done by mpi rank:  0
 ik=   15/ 512 spin=  1 done by mpi rank:  0
 ik=   18/ 512 spin=  1 done by mpi rank:  0
 ik=   19/ 512 spin=  1 done by mpi rank:  0
 ik=   22/ 512 spin=  1 done by mpi rank:  0
 ik=   23/ 512 spin=  1 done by mpi rank:  0
 ik=   26/ 512 spin=  1 done by mpi rank:  0
 ik=   27/ 512 spin=  1 done by mpi rank:  0
 ik=   30/ 512 spin=  1 done by mpi rank:  0
 ik=   31/ 512 spin=  1 done by mpi rank:  0
 ik=   36/ 512 spin=  1 done by mpi rank:  0
 ik=   37/ 512 spin=  1 done by mpi rank:  0
 ik=   39/ 512 spin=  1 done by mpi rank:  0
 ik=   48/ 512 spin=  1 done by mpi rank:  0
 ik=   49/ 512 spin=  1 done by mpi rank:  0
 ik=   51/ 512 spin=  1 done by mpi rank:  0
 ik=   60/ 512 spin=  1 done by mpi rank:  0
 ik=   61/ 512 spin=  1 done by mpi rank:  0
 ik=   63/ 512 spin=  1 done by mpi rank:  0
 ik=   72/ 512 spin=  1 done by mpi rank:  0
 ik=   73/ 512 spin=  1 done by mpi rank:  0
 ik=   75/ 512 spin=  1 done by mpi rank:  0
 ik=   84/ 512 spin=  1 done by mpi rank:  0
 ik=   85/ 512 spin=  1 done by mpi rank:  0
 ik=   87/ 512 spin=  1 done by mpi rank:  0
 ik=   96/ 512 spin=  1 done by mpi rank:  0
 ik=   97/ 512 spin=  1 done by mpi rank:  0
 ik=   99/ 512 spin=  1 done by mpi rank:  0
 ik=  108/ 512 spin=  1 done by mpi rank:  0
 ik=  109/ 512 spin=  1 done by mpi rank:  0
 ik=  111/ 512 spin=  1 done by mpi rank:  0
 ik=  120/ 512 spin=  1 done by mpi rank:  0
 ik=  121/ 512 spin=  1 done by mpi rank:  0
 ik=  123/ 512 spin=  1 done by mpi rank:  0
 ik=  132/ 512 spin=  1 done by mpi rank:  0
 ik=  133/ 512 spin=  1 done by mpi rank:  0
 ik=  135/ 512 spin=  1 done by mpi rank:  0
 ik=  144/ 512 spin=  1 done by mpi rank:  0
 ik=  145/ 512 spin=  1 done by mpi rank:  0
 ik=  147/ 512 spin=  1 done by mpi rank:  0
 ik=  156/ 512 spin=  1 done by mpi rank:  0
 ik=  157/ 512 spin=  1 done by mpi rank:  0
 ik=  159/ 512 spin=  1 done by mpi rank:  0
 ik=  168/ 512 spin=  1 done by mpi rank:  0
 ik=  169/ 512 spin=  1 done by mpi rank:  0
 ik=  174/ 512 spin=  1 done by mpi rank:  0
 ik=  175/ 512 spin=  1 done by mpi rank:  0
 ik=  177/ 512 spin=  1 done by mpi rank:  0
 ik=  186/ 512 spin=  1 done by mpi rank:  0
 ik=  187/ 512 spin=  1 done by mpi rank:  0
 ik=  189/ 512 spin=  1 done by mpi rank:  0
 ik=  198/ 512 spin=  1 done by mpi rank:  0
 ik=  199/ 512 spin=  1 done by mpi rank:  0
 ik=  201/ 512 spin=  1 done by mpi rank:  0
 ik=  210/ 512 spin=  1 done by mpi rank:  0
 ik=  211/ 512 spin=  1 done by mpi rank:  0
 ik=  213/ 512 spin=  1 done by mpi rank:  0
 ik=  222/ 512 spin=  1 done by mpi rank:  0
 ik=  223/ 512 spin=  1 done by mpi rank:  0
 ik=  225/ 512 spin=  1 done by mpi rank:  0
 ik=  234/ 512 spin=  1 done by mpi rank:  0
 ik=  235/ 512 spin=  1 done by mpi rank:  0
 ik=  237/ 512 spin=  1 done by mpi rank:  0
 ik=  246/ 512 spin=  1 done by mpi rank:  0
 ik=  247/ 512 spin=  1 done by mpi rank:  0
 ik=  249/ 512 spin=  1 done by mpi rank:  0
 ik=  258/ 512 spin=  1 done by mpi rank:  0
 ik=  259/ 512 spin=  1 done by mpi rank:  0
 ik=  264/ 512 spin=  1 done by mpi rank:  0
 ik=  265/ 512 spin=  1 done by mpi rank:  0
 ik=  267/ 512 spin=  1 done by mpi rank:  0
 ik=  276/ 512 spin=  1 done by mpi rank:  0
 ik=  277/ 512 spin=  1 done by mpi rank:  0
 ik=  279/ 512 spin=  1 done by mpi rank:  0
 ik=  288/ 512 spin=  1 done by mpi rank:  0
 ik=  289/ 512 spin=  1 done by mpi rank:  0
 ik=  291/ 512 spin=  1 done by mpi rank:  0
 ik=  300/ 512 spin=  1 done by mpi rank:  0
 ik=  303/ 512 spin=  1 done by mpi rank:  0
 ik=  304/ 512 spin=  1 done by mpi rank:  0
 ik=  305/ 512 spin=  1 done by mpi rank:  0
 ik=  306/ 512 spin=  1 done by mpi rank:  0
 ik=  327/ 512 spin=  1 done by mpi rank:  0
 ik=  328/ 512 spin=  1 done by mpi rank:  0
 ik=  329/ 512 spin=  1 done by mpi rank:  0
 ik=  330/ 512 spin=  1 done by mpi rank:  0
 ik=  351/ 512 spin=  1 done by mpi rank:  0
 ik=  352/ 512 spin=  1 done by mpi rank:  0
 ik=  353/ 512 spin=  1 done by mpi rank:  0
 ik=  354/ 512 spin=  1 done by mpi rank:  0
 ik=  375/ 512 spin=  1 done by mpi rank:  0
 ik=  376/ 512 spin=  1 done by mpi rank:  0
 ik=  377/ 512 spin=  1 done by mpi rank:  0
 ik=  378/ 512 spin=  1 done by mpi rank:  0
 ik=  399/ 512 spin=  1 done by mpi rank:  0
 ik=  400/ 512 spin=  1 done by mpi rank:  0
 ik=  401/ 512 spin=  1 done by mpi rank:  0
 ik=  402/ 512 spin=  1 done by mpi rank:  0
 ik=  423/ 512 spin=  1 done by mpi rank:  0
 ik=  424/ 512 spin=  1 done by mpi rank:  0
 ik=  425/ 512 spin=  1 done by mpi rank:  0
 ik=  426/ 512 spin=  1 done by mpi rank:  0
 ik=  447/ 512 spin=  1 done by mpi rank:  0
 ik=  448/ 512 spin=  1 done by mpi rank:  0
 ik=  449/ 512 spin=  1 done by mpi rank:  0
 ik=  450/ 512 spin=  1 done by mpi rank:  0
 ik=  471/ 512 spin=  1 done by mpi rank:  0
 ik=  472/ 512 spin=  1 done by mpi rank:  0
 ik=  473/ 512 spin=  1 done by mpi rank:  0
 ik=  474/ 512 spin=  1 done by mpi rank:  0
 ik=  495/ 512 spin=  1 done by mpi rank:  0
 ik=  496/ 512 spin=  1 done by mpi rank:  0
 ik=  507/ 512 spin=  1 done by mpi rank:  0
 cpu_time =       9.2, wall_time =       9.2
  chi0(G,G') at the    1 th omega   0.0000   0.0000 [eV]
  chi0(q =  3, omega =   1, G,G')
       1       2       3       4       5       6       7       8       9
    1  -8.541  -1.423  -0.665  -0.665  -0.665   1.049  -1.220  -1.220  -1.220
        0.000  -2.195  -1.329  -1.329  -1.329  -2.985   2.493   2.493   2.493

    2  -1.423 -20.329  -0.683  -0.683  -0.683  -0.077   0.143   0.143   0.143
        2.195   0.000   0.228   0.228   0.228  -3.212  -0.171  -0.171  -0.171

    3  -0.665  -0.683 -20.348   0.405   0.405   0.601   0.379   0.853   0.853
        1.329  -0.228   0.000   0.000  -0.000  -0.934  -2.612  -0.257  -0.257

    4  -0.665  -0.683   0.405 -20.348   0.405   0.601   0.853   0.379   0.853
        1.329  -0.228  -0.000   0.000  -0.000  -0.934  -0.257  -2.612  -0.257

    5  -0.665  -0.683   0.405   0.405 -20.348   0.601   0.853   0.853   0.379
        1.329  -0.228   0.000   0.000   0.000  -0.934  -0.257  -0.257  -2.612

    6   1.049  -0.077   0.601   0.601   0.601 -17.695   0.736   0.736   0.736
        2.985   3.212   0.934   0.934   0.934   0.000   0.307   0.307   0.307

    7  -1.220   0.143   0.379   0.853   0.853   0.736 -20.549  -0.916  -0.916
       -2.493   0.171   2.612   0.257   0.257  -0.307   0.000   0.000  -0.000

    8  -1.220   0.143   0.853   0.379   0.853   0.736  -0.916 -20.549  -0.916
       -2.493   0.171   0.257   2.612   0.257  -0.307  -0.000   0.000  -0.000

    9  -1.220   0.143   0.853   0.853   0.379   0.736  -0.916  -0.916 -20.549
       -2.493   0.171   0.257   0.257   2.612  -0.307   0.000   0.000   0.000

  chi0(G,G') at the    2 th omega   0.0000  29.2768 [eV]
  chi0(q =  3, omega =   2, G,G')
       1       2       3       4       5       6       7       8       9
    1  -0.602  -0.601   0.024   0.024   0.024   0.419  -0.310  -0.310  -0.310
        0.000  -0.614   0.028   0.028   0.028  -0.444   0.317   0.317   0.317

    2  -0.601  -8.266   0.035   0.035   0.035   0.296  -0.087  -0.087  -0.087
        0.614   0.000   0.004   0.004   0.004  -0.243  -0.040  -0.040  -0.040

    3   0.024   0.035  -6.030   0.790   0.790  -0.015   0.285  -0.050  -0.050
       -0.028  -0.004   0.000   0.000  -0.000  -0.048  -0.239  -0.044  -0.044

    4   0.024   0.035   0.790  -6.030   0.790  -0.015  -0.050   0.285  -0.050
       -0.028  -0.004  -0.000   0.000  -0.000  -0.048  -0.044  -0.239  -0.044

    5   0.024   0.035   0.790   0.790  -6.030  -0.015  -0.050  -0.050   0.285
       -0.028  -0.004   0.000   0.000   0.000  -0.048  -0.044  -0.044  -0.239

    6   0.419   0.296  -0.015  -0.015  -0.015  -4.327   0.808   0.808   0.808
        0.444   0.243   0.048   0.048   0.048   0.000   0.004   0.004   0.004

    7  -0.310  -0.087   0.285  -0.050  -0.050   0.808  -7.305   0.023   0.023
       -0.317   0.040   0.239   0.044   0.044  -0.004   0.000   0.000  -0.000

    8  -0.310  -0.087  -0.050   0.285  -0.050   0.808   0.023  -7.305   0.023
       -0.317   0.040   0.044   0.239   0.044  -0.004  -0.000   0.000  -0.000

    9  -0.310  -0.087  -0.050  -0.050   0.285   0.808   0.023   0.023  -7.305
       -0.317   0.040   0.044   0.044   0.239  -0.004   0.000   0.000   0.000

  Average fulfillment of the sum rule on Im[epsilon] for q-point    3 :    171.91  [%]


--------------------------------------------------------------------------------
  q-point number  4        q = ( 0.375000, 0.000000, 0.000000) [r.l.u.]
--------------------------------------------------------------------------------
 Using spectral method for the imaginary part =  0
 Using symmetries to sum only over the IBZ_q  =  1
 Using faster algorithm based on time reversal symmetry.
 Memory needed for bbp_ks_distrb: 450.0  [Mb] <<< MEM
 Will sum 3360 (b,b',k,s) states in chi0.
 Calculating chi0(q,omega,G,G")

 ==== Little Group Info ==== 
  External point: [ 3.7500E-01,  0.0000E+00,  0.0000E+00]
  Number of points in the IBZ defined by little group:  120/512
  Number of operations in the little group: 6/24
  No time-reversal symmetry with zero umklapp:  6
  No time-reversal symmetry with non-zero umklapp:  0

  time-reversal symmetry with zero umklapp:  0
  time-reversal symmetry with non-zero umklapp:  0

 Calculation status: 120 k-points to be completed
 ik=    1/ 512 spin=  1 done by mpi rank:  0
 ik=    2/ 512 spin=  1 done by mpi rank:  0
 ik=    3/ 512 spin=  1 done by mpi rank:  0
 ik=    6/ 512 spin=  1 done by mpi rank:  0
 ik=    7/ 512 spin=  1 done by mpi rank:  0
 ik=   10/ 512 spin=  1 done by mpi rank:  0
 ik=   11/ 512 spin=  1 done by mpi rank:  0
 ik=   14/ 512 spin=  1 done by mpi rank:  0
 ik=   15/ 512 spin=  1 done by mpi rank:  0
 ik=   18/ 512 spin=  1 done by mpi rank:  0
 ik=   19/ 512 spin=  1 done by mpi rank:  0
 ik=   22/ 512 spin=  1 done by mpi rank:  0
 ik=   23/ 512 spin=  1 done by mpi rank:  0
 ik=   26/ 512 spin=  1 done by mpi rank:  0
 ik=   27/ 512 spin=  1 done by mpi rank:  0
 ik=   30/ 512 spin=  1 done by mpi rank:  0
 ik=   31/ 512 spin=  1 done by mpi rank:  0
 ik=   36/ 512 spin=  1 done by mpi rank:  0
 ik=   37/ 512 spin=  1 done by mpi rank:  0
 ik=   39/ 512 spin=  1 done by mpi rank:  0
 ik=   48/ 512 spin=  1 done by mpi rank:  0
 ik=   49/ 512 spin=  1 done by mpi rank:  0
 ik=   51/ 512 spin=  1 done by mpi rank:  0
 ik=   60/ 512 spin=  1 done by mpi rank:  0
 ik=   61/ 512 spin=  1 done by mpi rank:  0
 ik=   63/ 512 spin=  1 done by mpi rank:  0
 ik=   72/ 512 spin=  1 done by mpi rank:  0
 ik=   73/ 512 spin=  1 done by mpi rank:  0
 ik=   75/ 512 spin=  1 done by mpi rank:  0
 ik=   84/ 512 spin=  1 done by mpi rank:  0
 ik=   85/ 512 spin=  1 done by mpi rank:  0
 ik=   87/ 512 spin=  1 done by mpi rank:  0
 ik=   96/ 512 spin=  1 done by mpi rank:  0
 ik=   97/ 512 spin=  1 done by mpi rank:  0
 ik=   99/ 512 spin=  1 done by mpi rank:  0
 ik=  108/ 512 spin=  1 done by mpi rank:  0
 ik=  109/ 512 spin=  1 done by mpi rank:  0
 ik=  111/ 512 spin=  1 done by mpi rank:  0
 ik=  120/ 512 spin=  1 done by mpi rank:  0
 ik=  121/ 512 spin=  1 done by mpi rank:  0
 ik=  123/ 512 spin=  1 done by mpi rank:  0
 ik=  132/ 512 spin=  1 done by mpi rank:  0
 ik=  133/ 512 spin=  1 done by mpi rank:  0
 ik=  135/ 512 spin=  1 done by mpi rank:  0
 ik=  144/ 512 spin=  1 done by mpi rank:  0
 ik=  145/ 512 spin=  1 done by mpi rank:  0
 ik=  147/ 512 spin=  1 done by mpi rank:  0
 ik=  156/ 512 spin=  1 done by mpi rank:  0
 ik=  157/ 512 spin=  1 done by mpi rank:  0
 ik=  159/ 512 spin=  1 done by mpi rank:  0
 ik=  168/ 512 spin=  1 done by mpi rank:  0
 ik=  169/ 512 spin=  1 done by mpi rank:  0
 ik=  174/ 512 spin=  1 done by mpi rank:  0
 ik=  175/ 512 spin=  1 done by mpi rank:  0
 ik=  177/ 512 spin=  1 done by mpi rank:  0
 ik=  186/ 512 spin=  1 done by mpi rank:  0
 ik=  187/ 512 spin=  1 done by mpi rank:  0
 ik=  189/ 512 spin=  1 done by mpi rank:  0
 ik=  198/ 512 spin=  1 done by mpi rank:  0
 ik=  199/ 512 spin=  1 done by mpi rank:  0
 ik=  201/ 512 spin=  1 done by mpi rank:  0
 ik=  210/ 512 spin=  1 done by mpi rank:  0
 ik=  211/ 512 spin=  1 done by mpi rank:  0
 ik=  213/ 512 spin=  1 done by mpi rank:  0
 ik=  222/ 512 spin=  1 done by mpi rank:  0
 ik=  223/ 512 spin=  1 done by mpi rank:  0
 ik=  225/ 512 spin=  1 done by mpi rank:  0
 ik=  234/ 512 spin=  1 done by mpi rank:  0
 ik=  235/ 512 spin=  1 done by mpi rank:  0
 ik=  237/ 512 spin=  1 done by mpi rank:  0
 ik=  246/ 512 spin=  1 done by mpi rank:  0
 ik=  247/ 512 spin=  1 done by mpi rank:  0
 ik=  249/ 512 spin=  1 done by mpi rank:  0
 ik=  258/ 512 spin=  1 done by mpi rank:  0
 ik=  259/ 512 spin=  1 done by mpi rank:  0
 ik=  264/ 512 spin=  1 done by mpi rank:  0
 ik=  265/ 512 spin=  1 done by mpi rank:  0
 ik=  267/ 512 spin=  1 done by mpi rank:  0
 ik=  276/ 512 spin=  1 done by mpi rank:  0
 ik=  277/ 512 spin=  1 done by mpi rank:  0
 ik=  279/ 512 spin=  1 done by mpi rank:  0
 ik=  288/ 512 spin=  1 done by mpi rank:  0
 ik=  289/ 512 spin=  1 done by mpi rank:  0
 ik=  291/ 512 spin=  1 done by mpi rank:  0
 ik=  300/ 512 spin=  1 done by mpi rank:  0
 ik=  303/ 512 spin=  1 done by mpi rank:  0
 ik=  304/ 512 spin=  1 done by mpi rank:  0
 ik=  305/ 512 spin=  1 done by mpi rank:  0
 ik=  306/ 512 spin=  1 done by mpi rank:  0
 ik=  327/ 512 spin=  1 done by mpi rank:  0
 ik=  328/ 512 spin=  1 done by mpi rank:  0
 ik=  329/ 512 spin=  1 done by mpi rank:  0
 ik=  330/ 512 spin=  1 done by mpi rank:  0
 ik=  351/ 512 spin=  1 done by mpi rank:  0
 ik=  352/ 512 spin=  1 done by mpi rank:  0
 ik=  353/ 512 spin=  1 done by mpi rank:  0
 ik=  354/ 512 spin=  1 done by mpi rank:  0
 ik=  375/ 512 spin=  1 done by mpi rank:  0
 ik=  376/ 512 spin=  1 done by mpi rank:  0
 ik=  377/ 512 spin=  1 done by mpi rank:  0
 ik=  378/ 512 spin=  1 done by mpi rank:  0
 ik=  399/ 512 spin=  1 done by mpi rank:  0
 ik=  400/ 512 spin=  1 done by mpi rank:  0
 ik=  401/ 512 spin=  1 done by mpi rank:  0
 ik=  402/ 512 spin=  1 done by mpi rank:  0
 ik=  423/ 512 spin=  1 done by mpi rank:  0
 ik=  424/ 512 spin=  1 done by mpi rank:  0
 ik=  425/ 512 spin=  1 done by mpi rank:  0
 ik=  426/ 512 spin=  1 done by mpi rank:  0
 ik=  447/ 512 spin=  1 done by mpi rank:  0
 ik=  448/ 512 spin=  1 done by mpi rank:  0
 ik=  449/ 512 spin=  1 done by mpi rank:  0
 ik=  450/ 512 spin=  1 done by mpi rank:  0
 ik=  471/ 512 spin=  1 done by mpi rank:  0
 ik=  472/ 512 spin=  1 done by mpi rank:  0
 ik=  473/ 512 spin=  1 done by mpi rank:  0
 ik=  474/ 512 spin=  1 done by mpi rank:  0
 ik=  495/ 512 spin=  1 done by mpi rank:  0
 ik=  496/ 512 spin=  1 done by mpi rank:  0
 ik=  507/ 512 spin=  1 done by mpi rank:  0
 cpu_time =       9.1, wall_time =       9.1
  chi0(G,G') at the    1 th omega   0.0000   0.0000 [eV]
  chi0(q =  4, omega =   1, G,G')
       1       2       3       4       5       6       7       8       9
    1 -11.924  -1.978  -1.205  -1.205  -1.205   1.203  -1.696  -1.696  -1.696
        0.000  -2.507  -2.113  -2.113  -2.113  -3.482   3.027   3.027   3.027

    2  -1.978 -20.478  -0.730  -0.730  -0.730   0.061  -0.118  -0.118  -0.118
        2.507   0.000   0.245   0.245   0.245  -3.141  -0.028  -0.028  -0.028

    3  -1.205  -0.730 -20.580   0.322   0.322   0.536   0.623   0.780   0.780
        2.113  -0.245   0.000  -0.000  -0.000  -0.908  -2.232  -0.153  -0.153

    4  -1.205  -0.730   0.322 -20.580   0.322   0.536   0.780   0.623   0.780
        2.113  -0.245   0.000   0.000  -0.000  -0.908  -0.153  -2.232  -0.153

    5  -1.205  -0.730   0.322   0.322 -20.580   0.536   0.780   0.780   0.623
        2.113  -0.245   0.000   0.000   0.000  -0.908  -0.153  -0.153  -2.232

    6   1.203   0.061   0.536   0.536   0.536 -16.126   0.798   0.798   0.798
        3.482   3.141   0.908   0.908   0.908   0.000   0.341   0.341   0.341

    7  -1.696  -0.118   0.623   0.780   0.780   0.798 -20.625  -1.084  -1.084
       -3.027   0.028   2.232   0.153   0.153  -0.341   0.000   0.000  -0.000

    8  -1.696  -0.118   0.780   0.623   0.780   0.798  -1.084 -20.625  -1.084
       -3.027   0.028   0.153   2.232   0.153  -0.341  -0.000   0.000  -0.000

    9  -1.696  -0.118   0.780   0.780   0.623   0.798  -1.084  -1.084 -20.625
       -3.027   0.028   0.153   0.153   2.232  -0.341   0.000   0.000   0.000

  chi0(G,G') at the    2 th omega   0.0000  29.2768 [eV]
  chi0(q =  4, omega =   2, G,G')
       1       2       3       4       5       6       7       8       9
    1  -1.306  -0.932  -0.077  -0.077  -0.077   0.531  -0.547  -0.547  -0.547
        0.000  -0.941  -0.073  -0.073  -0.073  -0.565   0.554   0.554   0.554

    2  -0.932  -8.976  -0.265  -0.265  -0.265   0.267  -0.109  -0.109  -0.109
        0.941   0.000   0.006   0.006   0.006  -0.219  -0.030  -0.030  -0.030

    3  -0.077  -0.265  -6.012   0.798   0.798  -0.007   0.243  -0.058  -0.058
        0.073  -0.006   0.000   0.000  -0.000  -0.038  -0.212  -0.034  -0.034

    4  -0.077  -0.265   0.798  -6.012   0.798  -0.007  -0.058   0.243  -0.058
        0.073  -0.006  -0.000   0.000  -0.000  -0.038  -0.034  -0.212  -0.034

    5  -0.077  -0.265   0.798   0.798  -6.012  -0.007  -0.058  -0.058   0.243
        0.073  -0.006   0.000   0.000   0.000  -0.038  -0.034  -0.034  -0.212

    6   0.531   0.267  -0.007  -0.007  -0.007  -3.235   0.841   0.841   0.841
        0.565   0.219   0.038   0.038   0.038   0.000   0.005   0.005   0.005

    7  -0.547  -0.109   0.243  -0.058  -0.058   0.841  -7.806  -0.287  -0.287
       -0.554   0.030   0.212   0.034   0.034  -0.005   0.000   0.000  -0.000

    8  -0.547  -0.109  -0.058   0.243  -0.058   0.841  -0.287  -7.806  -0.287
       -0.554   0.030   0.034   0.212   0.034  -0.005  -0.000   0.000  -0.000

    9  -0.547  -0.109  -0.058  -0.058   0.243   0.841  -0.287  -0.287  -7.806
       -0.554   0.030   0.034   0.034   0.212  -0.005   0.000   0.000   0.000

  Average fulfillment of the sum rule on Im[epsilon] for q-point    4 :    163.58  [%]


--------------------------------------------------------------------------------
  q-point number  5        q = ( 0.500000, 0.000000, 0.000000) [r.l.u.]
--------------------------------------------------------------------------------
 Using spectral method for the imaginary part =  0
 Using symmetries to sum only over the IBZ_q  =  1
 Using faster algorithm based on time reversal symmetry.
 Memory needed for bbp_ks_distrb: 450.0  [Mb] <<< MEM
 Will sum 3360 (b,b',k,s) states in chi0.
 Calculating chi0(q,omega,G,G")

 ==== Little Group Info ==== 
  External point: [ 5.0000E-01,  0.0000E+00,  0.0000E+00]
  Number of points in the IBZ defined by little group:  120/512
  Number of operations in the little group: 6/24
  No time-reversal symmetry with zero umklapp:  6
  No time-reversal symmetry with non-zero umklapp:  0

  time-reversal symmetry with zero umklapp:  0
  time-reversal symmetry with non-zero umklapp:  0

 Calculation status: 120 k-points to be completed
 ik=    1/ 512 spin=  1 done by mpi rank:  0
 ik=    2/ 512 spin=  1 done by mpi rank:  0
 ik=    3/ 512 spin=  1 done by mpi rank:  0
 ik=    6/ 512 spin=  1 done by mpi rank:  0
 ik=    7/ 512 spin=  1 done by mpi rank:  0
 ik=   10/ 512 spin=  1 done by mpi rank:  0
 ik=   11/ 512 spin=  1 done by mpi rank:  0
 ik=   14/ 512 spin=  1 done by mpi rank:  0
 ik=   15/ 512 spin=  1 done by mpi rank:  0
 ik=   18/ 512 spin=  1 done by mpi rank:  0
 ik=   19/ 512 spin=  1 done by mpi rank:  0
 ik=   22/ 512 spin=  1 done by mpi rank:  0
 ik=   23/ 512 spin=  1 done by mpi rank:  0
 ik=   26/ 512 spin=  1 done by mpi rank:  0
 ik=   27/ 512 spin=  1 done by mpi rank:  0
 ik=   30/ 512 spin=  1 done by mpi rank:  0
 ik=   31/ 512 spin=  1 done by mpi rank:  0
 ik=   36/ 512 spin=  1 done by mpi rank:  0
 ik=   37/ 512 spin=  1 done by mpi rank:  0
 ik=   39/ 512 spin=  1 done by mpi rank:  0
 ik=   48/ 512 spin=  1 done by mpi rank:  0
 ik=   49/ 512 spin=  1 done by mpi rank:  0
 ik=   51/ 512 spin=  1 done by mpi rank:  0
 ik=   60/ 512 spin=  1 done by mpi rank:  0
 ik=   61/ 512 spin=  1 done by mpi rank:  0
 ik=   63/ 512 spin=  1 done by mpi rank:  0
 ik=   72/ 512 spin=  1 done by mpi rank:  0
 ik=   73/ 512 spin=  1 done by mpi rank:  0
 ik=   75/ 512 spin=  1 done by mpi rank:  0
 ik=   84/ 512 spin=  1 done by mpi rank:  0
 ik=   85/ 512 spin=  1 done by mpi rank:  0
 ik=   87/ 512 spin=  1 done by mpi rank:  0
 ik=   96/ 512 spin=  1 done by mpi rank:  0
 ik=   97/ 512 spin=  1 done by mpi rank:  0
 ik=   99/ 512 spin=  1 done by mpi rank:  0
 ik=  108/ 512 spin=  1 done by mpi rank:  0
 ik=  109/ 512 spin=  1 done by mpi rank:  0
 ik=  111/ 512 spin=  1 done by mpi rank:  0
 ik=  120/ 512 spin=  1 done by mpi rank:  0
 ik=  121/ 512 spin=  1 done by mpi rank:  0
 ik=  123/ 512 spin=  1 done by mpi rank:  0
 ik=  132/ 512 spin=  1 done by mpi rank:  0
 ik=  133/ 512 spin=  1 done by mpi rank:  0
 ik=  135/ 512 spin=  1 done by mpi rank:  0
 ik=  144/ 512 spin=  1 done by mpi rank:  0
 ik=  145/ 512 spin=  1 done by mpi rank:  0
 ik=  147/ 512 spin=  1 done by mpi rank:  0
 ik=  156/ 512 spin=  1 done by mpi rank:  0
 ik=  157/ 512 spin=  1 done by mpi rank:  0
 ik=  159/ 512 spin=  1 done by mpi rank:  0
 ik=  168/ 512 spin=  1 done by mpi rank:  0
 ik=  169/ 512 spin=  1 done by mpi rank:  0
 ik=  174/ 512 spin=  1 done by mpi rank:  0
 ik=  175/ 512 spin=  1 done by mpi rank:  0
 ik=  177/ 512 spin=  1 done by mpi rank:  0
 ik=  186/ 512 spin=  1 done by mpi rank:  0
 ik=  187/ 512 spin=  1 done by mpi rank:  0
 ik=  189/ 512 spin=  1 done by mpi rank:  0
 ik=  198/ 512 spin=  1 done by mpi rank:  0
 ik=  199/ 512 spin=  1 done by mpi rank:  0
 ik=  201/ 512 spin=  1 done by mpi rank:  0
 ik=  210/ 512 spin=  1 done by mpi rank:  0
 ik=  211/ 512 spin=  1 done by mpi rank:  0
 ik=  213/ 512 spin=  1 done by mpi rank:  0
 ik=  222/ 512 spin=  1 done by mpi rank:  0
 ik=  223/ 512 spin=  1 done by mpi rank:  0
 ik=  225/ 512 spin=  1 done by mpi rank:  0
 ik=  234/ 512 spin=  1 done by mpi rank:  0
 ik=  235/ 512 spin=  1 done by mpi rank:  0
 ik=  237/ 512 spin=  1 done by mpi rank:  0
 ik=  246/ 512 spin=  1 done by mpi rank:  0
 ik=  247/ 512 spin=  1 done by mpi rank:  0
 ik=  249/ 512 spin=  1 done by mpi rank:  0
 ik=  258/ 512 spin=  1 done by mpi rank:  0
 ik=  259/ 512 spin=  1 done by mpi rank:  0
 ik=  264/ 512 spin=  1 done by mpi rank:  0
 ik=  265/ 512 spin=  1 done by mpi rank:  0
 ik=  267/ 512 spin=  1 done by mpi rank:  0
 ik=  276/ 512 spin=  1 done by mpi rank:  0
 ik=  277/ 512 spin=  1 done by mpi rank:  0
 ik=  279/ 512 spin=  1 done by mpi rank:  0
 ik=  288/ 512 spin=  1 done by mpi rank:  0
 ik=  289/ 512 spin=  1 done by mpi rank:  0
 ik=  291/ 512 spin=  1 done by mpi rank:  0
 ik=  300/ 512 spin=  1 done by mpi rank:  0
 ik=  303/ 512 spin=  1 done by mpi rank:  0
 ik=  304/ 512 spin=  1 done by mpi rank:  0
 ik=  305/ 512 spin=  1 done by mpi rank:  0
 ik=  306/ 512 spin=  1 done by mpi rank:  0
 ik=  327/ 512 spin=  1 done by mpi rank:  0
 ik=  328/ 512 spin=  1 done by mpi rank:  0
 ik=  329/ 512 spin=  1 done by mpi rank:  0
 ik=  330/ 512 spin=  1 done by mpi rank:  0
 ik=  351/ 512 spin=  1 done by mpi rank:  0
 ik=  352/ 512 spin=  1 done by mpi rank:  0
 ik=  353/ 512 spin=  1 done by mpi rank:  0
 ik=  354/ 512 spin=  1 done by mpi rank:  0
 ik=  375/ 512 spin=  1 done by mpi rank:  0
 ik=  376/ 512 spin=  1 done by mpi rank:  0
 ik=  377/ 512 spin=  1 done by mpi rank:  0
 ik=  378/ 512 spin=  1 done by mpi rank:  0
 ik=  399/ 512 spin=  1 done by mpi rank:  0
 ik=  400/ 512 spin=  1 done by mpi rank:  0
 ik=  401/ 512 spin=  1 done by mpi rank:  0
 ik=  402/ 512 spin=  1 done by mpi rank:  0
 ik=  423/ 512 spin=  1 done by mpi rank:  0
 ik=  424/ 512 spin=  1 done by mpi rank:  0
 ik=  425/ 512 spin=  1 done by mpi rank:  0
[...]
message: |
    Values of Re Sig_c are not linear 
    band index = 28 spin|component = 1
    root mean square=      0.036227707849457
    estimated slope =     -0.603907492499562
    Omega [eV] SigC [eV]
...

 28.7573 -9.3479
 29.0073 -9.7562
 29.2573-10.2911
 29.5073-11.0222
 29.7573-10.8794
 30.0073-10.6592
 30.2573-11.5241
 30.5073-12.5892
 30.7573 -8.9620

 k =    0.000   0.000   0.000
 Band     E0 <VxcDFT>   SigX SigC(E0)      Z dSigC/dE  Sig(E)    E-E0       E
   12   4.045 -13.352 -15.450   0.733   0.795  -0.258 -14.437  -1.085   2.960
   12   0.000   0.000   0.000  -0.000   0.000   0.000  -0.000  -0.000  -0.000
   13   4.045 -13.352 -15.450   0.733   0.795  -0.258 -14.437  -1.085   2.960
   13   0.000   0.000   0.000  -0.000   0.000   0.000  -0.000  -0.000  -0.000
   14   4.045 -13.352 -15.450   0.733   0.795  -0.258 -14.437  -1.085   2.960
   14   0.000   0.000   0.000  -0.000   0.000   0.000  -0.000  -0.000  -0.000
   15   4.583 -13.918 -10.914  -3.691   0.796  -0.256 -14.465  -0.547   4.036
   15   0.000   0.000   0.000  -0.000   0.000   0.000  -0.000  -0.000  -0.000
   16   7.790 -10.865  -7.013  -4.239   0.797  -0.254 -11.173  -0.309   7.481
   16   0.000   0.000   0.000   0.000   0.000   0.000   0.000   0.000   0.000
   17   7.790 -10.865  -7.013  -4.239   0.797  -0.254 -11.173  -0.309   7.481
   17   0.000   0.000   0.000   0.000   0.000   0.000   0.000   0.000   0.000
   18   7.790 -10.865  -7.013  -4.239   0.797  -0.254 -11.173  -0.309   7.481
   18   0.000   0.000   0.000   0.000   0.000   0.000   0.000   0.000   0.000
   19  11.660  -8.583  -3.701  -5.433   0.784  -0.275  -9.015  -0.432  11.228
   19   0.000   0.000   0.000   0.005   0.000   0.000   0.004   0.004   0.004
   20  14.219 -10.862  -4.696  -5.555   0.783  -0.278 -10.384   0.478  14.697
   20   0.000   0.000   0.000   0.002   0.000   0.000   0.001   0.001   0.001
   21  14.219 -10.862  -4.696  -5.555   0.783  -0.278 -10.384   0.478  14.697
   21   0.000   0.000   0.000   0.002   0.000   0.000   0.001   0.001   0.001
   22  15.636  -8.013  -2.519  -5.848   0.768  -0.302  -8.285  -0.272  15.364
   22   0.000   0.000   0.000   0.002   0.000   0.000   0.002   0.002   0.002
   23  15.636  -8.013  -2.519  -5.848   0.768  -0.302  -8.285  -0.272  15.364
   23   0.000   0.000   0.000   0.002   0.000   0.000   0.002   0.002   0.002
   24  15.636  -8.013  -2.519  -5.848   0.768  -0.302  -8.285  -0.272  15.364
   24   0.000   0.000   0.000   0.002   0.000   0.000   0.002   0.002   0.002
   25  18.619  -6.347  -1.435  -5.816   0.759  -0.317  -7.033  -0.686  17.933
   25   0.000   0.000   0.000   0.001   0.000   0.000   0.000   0.000   0.000
   26  29.757 -12.009  -5.241 -10.879   0.623  -0.604 -14.572  -2.563  27.194
   26   0.000   0.000   0.000  -0.818   0.000   0.000  -0.510  -0.510  -0.510
   27  29.757 -12.009  -5.241 -10.879   0.623  -0.604 -14.572  -2.563  27.194
   27   0.000   0.000   0.000  -0.818   0.000   0.000  -0.510  -0.510  -0.510
   28  29.757 -12.009  -5.241 -10.879   0.623  -0.604 -14.572  -2.563  27.194
   28   0.000   0.000   0.000  -0.818   0.000   0.000  -0.510  -0.510  -0.510

 E^0_gap          0.538
 E^GW_gap         1.076
 DeltaE^GW_gap    0.538


 k =    0.500   0.500   0.000
 Band     E0 <VxcDFT>   SigX SigC(E0)      Z dSigC/dE  Sig(E)    E-E0       E
   12  -2.779 -12.011 -16.885   3.281   0.745  -0.342 -13.198  -1.187  -3.967
   12   0.000   0.000   0.000  -0.002   0.000   0.000  -0.002  -0.002  -0.002
   13   1.361 -11.736 -15.124   1.764   0.782  -0.278 -13.007  -1.271   0.090
   13   0.000   0.000   0.000   0.000   0.000   0.000   0.000   0.000   0.000
   14   1.361 -11.736 -15.124   1.764   0.782  -0.278 -13.007  -1.271   0.090
   14   0.000   0.000   0.000   0.000   0.000   0.000   0.000   0.000   0.000
   15   5.512  -9.409  -5.886  -3.847   0.811  -0.234  -9.671  -0.262   5.249
   15   0.000   0.000   0.000  -0.000   0.000   0.000  -0.000  -0.000  -0.000
   16   5.708 -10.553  -6.921  -3.935   0.805  -0.241 -10.796  -0.244   5.464
   16   0.000   0.000   0.000   0.000   0.000   0.000   0.000   0.000   0.000
   17  14.245 -12.500  -6.913  -6.264   0.743  -0.346 -13.003  -0.503  13.743
   17   0.000   0.000   0.000  -0.000   0.000   0.000  -0.000  -0.000  -0.000
   18  14.245 -12.500  -6.913  -6.264   0.743  -0.346 -13.003  -0.503  13.743
   18   0.000   0.000   0.000  -0.000   0.000   0.000  -0.000  -0.000  -0.000
   19  15.050 -12.016  -6.706  -6.163   0.752  -0.330 -12.657  -0.641  14.409
   19   0.000   0.000   0.000  -0.003   0.000   0.000  -0.002  -0.002  -0.002
   20  17.398 -11.588  -5.753  -6.498   0.746  -0.340 -12.083  -0.495  16.904
   20   0.000   0.000   0.000  -0.011   0.000   0.000  -0.008  -0.008  -0.008
   21  17.502 -11.083  -4.629  -6.217   0.760  -0.315 -10.903   0.181  17.683
   21   0.000   0.000   0.000   0.002   0.000   0.000   0.002   0.002   0.002
   22  17.502 -11.083  -4.629  -6.217   0.760  -0.315 -10.903   0.181  17.683
   22   0.000   0.000   0.000   0.002   0.000   0.000   0.002   0.002   0.002
   23  17.610 -10.741  -4.054  -6.317   0.764  -0.308 -10.458   0.283  17.893
   23   0.000   0.000   0.000   0.001   0.000   0.000   0.000   0.000   0.000
   24  19.477 -10.445  -3.489  -6.706   0.734  -0.363 -10.262   0.184  19.661
   24   0.000   0.000   0.000   0.005   0.000   0.000   0.004   0.004   0.004
   25  23.639  -9.990  -3.120  -7.305   0.655  -0.526 -10.275  -0.285  23.353
   25   0.000   0.000   0.000  -0.001   0.000   0.000  -0.000  -0.000  -0.000
   26  23.887  -8.834  -2.419  -7.278   0.678  -0.475  -9.419  -0.585  23.302
   26   0.000   0.000   0.000  -0.005   0.000   0.000  -0.003  -0.003  -0.003
   27  23.887  -8.834  -2.419  -7.278   0.678  -0.475  -9.419  -0.585  23.302
   27   0.000   0.000   0.000  -0.005   0.000   0.000  -0.003  -0.003  -0.003

 E^0_gap          4.151
 E^GW_gap         5.160
 DeltaE^GW_gap    1.009

- Creating netcdf file WITHOUT MPI-IO support: outdata_ac_DS2_SIGRES.nc
 dataset: 2 , wall: 01:22 [minutes] , cpu: 01:18 [minutes] <<< TIME

== END DATASET(S) ==============================================================
================================================================================
  
 -outvars: echo values of variables after computation  --------
 
 These variables are accessible in NetCDF format (outdata_ac_OUT.nc)

            acell      1.0673173199E+01  1.0673173199E+01  1.0673173199E+01 Bohr
              amu      6.97230000E+01  7.49215900E+01
             bdgw          12      26      12      26
           diemac      1.20000000E+01
             ecut      4.50000000E+01 Hartree
          ecuteps      1.20000000E+01 Hartree
         ecutsigx      3.60000000E+01 Hartree
          ecutwfn      4.50000000E+01 Hartree
           etotal1     0.0000000000E+00
           etotal2     0.0000000000E+00
            fcart1     0.0000000000E+00  0.0000000000E+00  0.0000000000E+00
                       0.0000000000E+00  0.0000000000E+00  0.0000000000E+00
            fcart2     0.0000000000E+00  0.0000000000E+00  0.0000000000E+00
                       0.0000000000E+00  0.0000000000E+00  0.0000000000E+00
-          fftalg         312
           getscr1          0
           getscr2         -1
           istwfk        1    0    0    0    1    0    0    0    0    0
                         0    0    0    0    0    0    0    0    0    0
                         1    0    0    0    0    0    0    0    0
              ixc          11
           jdtset        1    2
              kpt      0.00000000E+00  0.00000000E+00  0.00000000E+00
                       1.25000000E-01  0.00000000E+00  0.00000000E+00
                       2.50000000E-01  0.00000000E+00  0.00000000E+00
                       3.75000000E-01  0.00000000E+00  0.00000000E+00
                       5.00000000E-01  0.00000000E+00  0.00000000E+00
                       1.25000000E-01  1.25000000E-01  0.00000000E+00
                       2.50000000E-01  1.25000000E-01  0.00000000E+00
                       3.75000000E-01  1.25000000E-01  0.00000000E+00
                       5.00000000E-01  1.25000000E-01  0.00000000E+00
                      -3.75000000E-01  1.25000000E-01  0.00000000E+00
                      -2.50000000E-01  1.25000000E-01  0.00000000E+00
                      -1.25000000E-01  1.25000000E-01  0.00000000E+00
                       2.50000000E-01  2.50000000E-01  0.00000000E+00
                       3.75000000E-01  2.50000000E-01  0.00000000E+00
                       5.00000000E-01  2.50000000E-01  0.00000000E+00
                      -3.75000000E-01  2.50000000E-01  0.00000000E+00
                      -2.50000000E-01  2.50000000E-01  0.00000000E+00
                       3.75000000E-01  3.75000000E-01  0.00000000E+00
                       5.00000000E-01  3.75000000E-01  0.00000000E+00
                      -3.75000000E-01  3.75000000E-01  0.00000000E+00
                       5.00000000E-01  5.00000000E-01  0.00000000E+00
                       3.75000000E-01  2.50000000E-01  1.25000000E-01
                       5.00000000E-01  2.50000000E-01  1.25000000E-01
                      -3.75000000E-01  2.50000000E-01  1.25000000E-01
                       5.00000000E-01  3.75000000E-01  1.25000000E-01
                      -3.75000000E-01  3.75000000E-01  1.25000000E-01
                      -2.50000000E-01  3.75000000E-01  1.25000000E-01
                      -3.75000000E-01  5.00000000E-01  1.25000000E-01
                      -2.50000000E-01  5.00000000E-01  2.50000000E-01
            kptgw      0.00000000E+00  0.00000000E+00  0.00000000E+00
                       5.00000000E-01  5.00000000E-01  0.00000000E+00
         kptrlatt        8    0    0      0    8    0      0    0    8
          kptrlen      6.03765852E+01
P           mkmem           1
            natom           2
            nband         480
           ndtset           2
            ngfft          48      48      48
             nkpt          29
           nkptgw           2
           npweps         609
          npwsigx        3119
           npwwfn        4381
            nstep          50
             nsym          24
           ntypat           2
              occ      2.000000  2.000000  2.000000  2.000000  2.000000  2.000000
                       2.000000  2.000000  2.000000  2.000000  2.000000  2.000000
                       2.000000  2.000000  0.000000  0.000000  0.000000  0.000000
                       0.000000  0.000000  0.000000  0.000000  0.000000  0.000000
                       0.000000  0.000000  0.000000  0.000000  0.000000  0.000000
                       0.000000  0.000000  0.000000  0.000000  0.000000  0.000000
                       0.000000  0.000000  0.000000  0.000000  0.000000  0.000000
                       0.000000  0.000000  0.000000  0.000000  0.000000  0.000000
                       0.000000  0.000000  0.000000  0.000000  0.000000  0.000000
                       0.000000  0.000000  0.000000  0.000000  0.000000  0.000000
                       0.000000  0.000000  0.000000  0.000000  0.000000  0.000000
                       0.000000  0.000000  0.000000  0.000000  0.000000  0.000000
                       0.000000  0.000000  0.000000  0.000000  0.000000  0.000000
                       0.000000  0.000000  0.000000  0.000000  0.000000  0.000000
                       0.000000  0.000000  0.000000  0.000000  0.000000  0.000000
                       0.000000  0.000000  0.000000  0.000000  0.000000  0.000000
                       0.000000  0.000000  0.000000  0.000000  0.000000  0.000000
                       0.000000  0.000000  0.000000  0.000000  0.000000  0.000000
                       0.000000  0.000000  0.000000  0.000000  0.000000  0.000000
                       0.000000  0.000000  0.000000  0.000000  0.000000  0.000000
                       0.000000  0.000000  0.000000  0.000000  0.000000  0.000000
                       0.000000  0.000000  0.000000  0.000000  0.000000  0.000000
                       0.000000  0.000000  0.000000  0.000000  0.000000  0.000000
                       0.000000  0.000000  0.000000  0.000000  0.000000  0.000000
                       0.000000  0.000000  0.000000  0.000000  0.000000  0.000000
                       0.000000  0.000000  0.000000  0.000000  0.000000  0.000000
                       0.000000  0.000000  0.000000  0.000000  0.000000  0.000000
                       0.000000  0.000000  0.000000  0.000000  0.000000  0.000000
                       0.000000  0.000000  0.000000  0.000000  0.000000  0.000000
                       0.000000  0.000000  0.000000  0.000000  0.000000  0.000000
                       0.000000  0.000000  0.000000  0.000000  0.000000  0.000000
                       0.000000  0.000000  0.000000  0.000000  0.000000  0.000000
                       0.000000  0.000000  0.000000  0.000000  0.000000  0.000000
                       0.000000  0.000000  0.000000  0.000000  0.000000  0.000000
                       0.000000  0.000000  0.000000  0.000000  0.000000  0.000000
                       0.000000  0.000000  0.000000  0.000000  0.000000  0.000000
                       0.000000  0.000000  0.000000  0.000000  0.000000  0.000000
                       0.000000  0.000000  0.000000  0.000000  0.000000  0.000000
                       0.000000  0.000000  0.000000  0.000000  0.000000  0.000000
                       0.000000  0.000000  0.000000  0.000000  0.000000  0.000000
                       0.000000  0.000000  0.000000  0.000000  0.000000  0.000000
                       0.000000  0.000000  0.000000  0.000000  0.000000  0.000000
                       0.000000  0.000000  0.000000  0.000000  0.000000  0.000000
                       0.000000  0.000000  0.000000  0.000000  0.000000  0.000000
                       0.000000  0.000000  0.000000  0.000000  0.000000  0.000000
                       0.000000  0.000000  0.000000  0.000000  0.000000  0.000000
                       0.000000  0.000000  0.000000  0.000000  0.000000  0.000000
                       0.000000  0.000000  0.000000  0.000000  0.000000  0.000000
                       0.000000  0.000000  0.000000  0.000000  0.000000  0.000000
                       0.000000  0.000000  0.000000  0.000000  0.000000  0.000000
                       0.000000  0.000000  0.000000  0.000000  0.000000  0.000000
                       0.000000  0.000000  0.000000  0.000000  0.000000  0.000000
                       0.000000  0.000000  0.000000  0.000000  0.000000  0.000000
                       0.000000  0.000000  0.000000  0.000000  0.000000  0.000000
                       0.000000  0.000000  0.000000  0.000000  0.000000  0.000000
                       0.000000  0.000000  0.000000  0.000000  0.000000  0.000000
                       0.000000  0.000000  0.000000  0.000000  0.000000  0.000000
                       0.000000  0.000000  0.000000  0.000000  0.000000  0.000000
                       0.000000  0.000000  0.000000  0.000000  0.000000  0.000000
                       0.000000  0.000000  0.000000  0.000000  0.000000  0.000000
                       0.000000  0.000000  0.000000  0.000000  0.000000  0.000000
                       0.000000  0.000000  0.000000  0.000000  0.000000  0.000000
                       0.000000  0.000000  0.000000  0.000000  0.000000  0.000000
                       0.000000  0.000000  0.000000  0.000000  0.000000  0.000000
                       0.000000  0.000000  0.000000  0.000000  0.000000  0.000000
                       0.000000  0.000000  0.000000  0.000000  0.000000  0.000000
                       0.000000  0.000000  0.000000  0.000000  0.000000  0.000000
                       0.000000  0.000000  0.000000  0.000000  0.000000  0.000000
                       0.000000  0.000000  0.000000  0.000000  0.000000  0.000000
                       0.000000  0.000000  0.000000  0.000000  0.000000  0.000000
                       0.000000  0.000000  0.000000  0.000000  0.000000  0.000000
                       0.000000  0.000000  0.000000  0.000000  0.000000  0.000000
                       0.000000  0.000000  0.000000  0.000000  0.000000  0.000000
                       0.000000  0.000000  0.000000  0.000000  0.000000  0.000000
                       0.000000  0.000000  0.000000  0.000000  0.000000  0.000000
                       0.000000  0.000000  0.000000  0.000000  0.000000  0.000000
                       0.000000  0.000000  0.000000  0.000000  0.000000  0.000000
                       0.000000  0.000000  0.000000  0.000000  0.000000  0.000000
                       0.000000  0.000000  0.000000  0.000000  0.000000  0.000000
                       0.000000  0.000000  0.000000  0.000000  0.000000  0.000000
        optdriver1          3
        optdriver2          4
            rprim      0.0000000000E+00  5.0000000000E-01  5.0000000000E-01
                       5.0000000000E-01  0.0000000000E+00  5.0000000000E-01
                       5.0000000000E-01  5.0000000000E-01  0.0000000000E+00
          spgroup         216
           strten1     0.0000000000E+00  0.0000000000E+00  0.0000000000E+00
                       0.0000000000E+00  0.0000000000E+00  0.0000000000E+00
           strten2     0.0000000000E+00  0.0000000000E+00  0.0000000000E+00
                       0.0000000000E+00  0.0000000000E+00  0.0000000000E+00
           symrel      1  0  0   0  1  0   0  0  1       0 -1  1   0 -1  0   1 -1  0
                      -1  0  0  -1  0  1  -1  1  0       0  1 -1   1  0 -1   0  0 -1
                      -1  0  0  -1  1  0  -1  0  1       0 -1  1   1 -1  0   0 -1  0
                       1  0  0   0  0  1   0  1  0       0  1 -1   0  0 -1   1  0 -1
                      -1  0  1  -1  1  0  -1  0  0       0 -1  0   1 -1  0   0 -1  1
                       1  0 -1   0  0 -1   0  1 -1       0  1  0   0  0  1   1  0  0
                       1  0 -1   0  1 -1   0  0 -1       0 -1  0   0 -1  1   1 -1  0
                      -1  0  1  -1  0  0  -1  1  0       0  1  0   1  0  0   0  0  1
                       0  0 -1   0  1 -1   1  0 -1       1 -1  0   0 -1  1   0 -1  0
                       0  0  1   1  0  0   0  1  0      -1  1  0  -1  0  0  -1  0  1
                       0  0  1   0  1  0   1  0  0       1 -1  0   0 -1  0   0 -1  1
                       0  0 -1   1  0 -1   0  1 -1      -1  1  0  -1  0  1  -1  0  0
           timopt          -1
            typat      1  2
              wtk        0.00195    0.01563    0.01563    0.01563    0.00781    0.01172
                         0.04688    0.04688    0.04688    0.04688    0.04688    0.02344
                         0.01172    0.04688    0.04688    0.04688    0.02344    0.01172
                         0.04688    0.02344    0.00586    0.04688    0.09375    0.04688
                         0.04688    0.09375    0.04688    0.02344    0.01172
           xangst      0.0000000000E+00  0.0000000000E+00  0.0000000000E+00
                       1.4120000000E+00  1.4120000000E+00  1.4120000000E+00
            xcart      0.0000000000E+00  0.0000000000E+00  0.0000000000E+00
                       2.6682932996E+00  2.6682932996E+00  2.6682932996E+00
             xred      0.0000000000E+00  0.0000000000E+00  0.0000000000E+00
                       2.5000000000E-01  2.5000000000E-01  2.5000000000E-01
            znucl       31.00000   33.00000

================================================================================
  
 Proc.   0 individual time (sec): cpu=        564.2  wall=        571.9

 Calculation completed.
.Delivered   0 WARNINGs and   0 COMMENTs to log file.

--- !FinalSummary
program: abinit
version: 9.9.2
start_datetime: Fri Feb 17 01:16:13 2023
end_datetime: Fri Feb 17 01:25:45 2023
overall_cpu_time:      146244.7
overall_wall_time:      146402.4
exit_requested_by_user: no 
timelimit: 0
pseudos: 
    Ga  : c0561db90e98f595da17f9cd99b3fad2
    As  : dcc36ea68579a22f411a6e67003c2999
usepaw: 0
mpi_procs: 256
omp_threads: 1
num_warnings: 0
num_comments: 0
...
