
.Version 9.9.2 of ABINIT 
.(MPI version, prepared for a x86_64_linux_gnu11.2 computer) 

.Copyright (C) 1998-2022 ABINIT group . 
 ABINIT comes with ABSOLUTELY NO WARRANTY.
 It is free software, and you are welcome to redistribute it
 under certain conditions (GNU General Public License,
 see ~abinit/COPYING or http://www.gnu.org/copyleft/gpl.txt).

 ABINIT is a project of the Universite Catholique de Louvain,
 Corning Inc. and other collaborators, see ~abinit/doc/developers/contributors.txt .
 Please read https://docs.abinit.org/theory/acknowledgments for suggested
 acknowledgments of the ABINIT effort.
 For more information, see https://www.abinit.org .

.Starting date : Fri 17 Feb 2023.
- ( at 10h33 )
  
- input  file    -> run.abi
- output file    -> run.abo
- root for input  files -> ../indata_ac
- root for output files -> outdata_ac


 DATASET    1 : space group Fm -3 m (#225); Bravais cF (face-center cubic)
================================================================================
 Values of the parameters that define the memory need for DATASET  1.
     intxc =       0    ionmov =       0      iscf =       7    lmnmax =       5
     lnmax =       5     mgfft =      36  mpssoang =       3    mqgrid =    3001
     natom =       2  nloc_mem =       1    nspden =       1   nspinor =       1
    nsppol =       1      nsym =      48    n1xccc =    2501    ntypat =       2
    occopt =       1   xclevel =       2
-    mband =         480        mffmem =           1         mkmem =           1
       mpw =        1840          nfft =       46656          nkpt =          29
================================================================================
P This job should need less than                      36.816 Mbytes of memory.
  Rough estimation (10% accuracy) of disk space for files :
_ WF disk file :    390.822 Mbytes ; DEN or POT disk file :      0.358 Mbytes.
================================================================================


 DATASET    2 : space group Fm -3 m (#225); Bravais cF (face-center cubic)
================================================================================
 Values of the parameters that define the memory need for DATASET  2.
     intxc =       0    ionmov =       0      iscf =       7    lmnmax =       5
     lnmax =       5     mgfft =      36  mpssoang =       3    mqgrid =    3001
     natom =       2  nloc_mem =       1    nspden =       1   nspinor =       1
    nsppol =       1      nsym =      48    n1xccc =    2501    ntypat =       2
    occopt =       1   xclevel =       2
-    mband =         480        mffmem =           1         mkmem =           1
       mpw =        1840          nfft =       46656          nkpt =          29
================================================================================
P This job should need less than                      36.816 Mbytes of memory.
  Rough estimation (10% accuracy) of disk space for files :
_ WF disk file :    390.822 Mbytes ; DEN or POT disk file :      0.358 Mbytes.
================================================================================

--------------------------------------------------------------------------------
------------- Echo of variables that govern the present computation ------------
--------------------------------------------------------------------------------
-
- outvars: echo of selected default values                                      
-   iomode0 =  0 , fftalg0 =312 , wfoptalg0 =  0
-
- outvars: echo of global parameters not present in the input file              
-  max_nthreads =    0
-
 -outvars: echo values of preprocessed input variables --------
            acell      7.9614161978E+00  7.9614161978E+00  7.9614161978E+00 Bohr
              amu      2.43050000E+01  1.59994000E+01
             bdgw           1      12       1      12
           diemac      1.20000000E+01
             ecut      4.50000000E+01 Hartree
          ecuteps      1.20000000E+01 Hartree
         ecutsigx      4.50000000E+01 Hartree
          ecutwfn      4.50000000E+01 Hartree
-          fftalg         312
           getscr1          0
           getscr2         -1
           istwfk        1    0    0    0    1    0    0    0    0    0
                         0    0    0    0    0    0    0    0    0    0
                         1    0    0    0    0    0    0    0    0
              ixc          11
           jdtset        1    2
              kpt      0.00000000E+00  0.00000000E+00  0.00000000E+00
                       1.25000000E-01  0.00000000E+00  0.00000000E+00
                       2.50000000E-01  0.00000000E+00  0.00000000E+00
                       3.75000000E-01  0.00000000E+00  0.00000000E+00
                       5.00000000E-01  0.00000000E+00  0.00000000E+00
                       1.25000000E-01  1.25000000E-01  0.00000000E+00
                       2.50000000E-01  1.25000000E-01  0.00000000E+00
                       3.75000000E-01  1.25000000E-01  0.00000000E+00
                       5.00000000E-01  1.25000000E-01  0.00000000E+00
                      -3.75000000E-01  1.25000000E-01  0.00000000E+00
                      -2.50000000E-01  1.25000000E-01  0.00000000E+00
                      -1.25000000E-01  1.25000000E-01  0.00000000E+00
                       2.50000000E-01  2.50000000E-01  0.00000000E+00
                       3.75000000E-01  2.50000000E-01  0.00000000E+00
                       5.00000000E-01  2.50000000E-01  0.00000000E+00
                      -3.75000000E-01  2.50000000E-01  0.00000000E+00
                      -2.50000000E-01  2.50000000E-01  0.00000000E+00
                       3.75000000E-01  3.75000000E-01  0.00000000E+00
                       5.00000000E-01  3.75000000E-01  0.00000000E+00
                      -3.75000000E-01  3.75000000E-01  0.00000000E+00
                       5.00000000E-01  5.00000000E-01  0.00000000E+00
                       3.75000000E-01  2.50000000E-01  1.25000000E-01
                       5.00000000E-01  2.50000000E-01  1.25000000E-01
                      -3.75000000E-01  2.50000000E-01  1.25000000E-01
                       5.00000000E-01  3.75000000E-01  1.25000000E-01
                      -3.75000000E-01  3.75000000E-01  1.25000000E-01
                      -2.50000000E-01  3.75000000E-01  1.25000000E-01
                      -3.75000000E-01  5.00000000E-01  1.25000000E-01
                      -2.50000000E-01  5.00000000E-01  2.50000000E-01
            kptgw      0.00000000E+00  0.00000000E+00  0.00000000E+00
                       5.00000000E-01  5.00000000E-01  0.00000000E+00
         kptrlatt        8    0    0      0    8    0      0    0    8
          kptrlen      4.50365711E+01
P           mkmem           1
            natom           2
            nband         480
           ndtset           2
            ngfft          36      36      36
             nkpt          29
           nkptgw           2
           npweps         259
          npwsigx        1837
           npwwfn        1837
            nstep          50
             nsym          48
           ntypat           2
              occ      2.000000  2.000000  2.000000  2.000000  2.000000  2.000000
                       2.000000  2.000000  0.000000  0.000000  0.000000  0.000000
                       0.000000  0.000000  0.000000  0.000000  0.000000  0.000000
                       0.000000  0.000000  0.000000  0.000000  0.000000  0.000000
                       0.000000  0.000000  0.000000  0.000000  0.000000  0.000000
                       0.000000  0.000000  0.000000  0.000000  0.000000  0.000000
                       0.000000  0.000000  0.000000  0.000000  0.000000  0.000000
                       0.000000  0.000000  0.000000  0.000000  0.000000  0.000000
                       0.000000  0.000000  0.000000  0.000000  0.000000  0.000000
                       0.000000  0.000000  0.000000  0.000000  0.000000  0.000000
                       0.000000  0.000000  0.000000  0.000000  0.000000  0.000000
                       0.000000  0.000000  0.000000  0.000000  0.000000  0.000000
                       0.000000  0.000000  0.000000  0.000000  0.000000  0.000000
                       0.000000  0.000000  0.000000  0.000000  0.000000  0.000000
                       0.000000  0.000000  0.000000  0.000000  0.000000  0.000000
                       0.000000  0.000000  0.000000  0.000000  0.000000  0.000000
                       0.000000  0.000000  0.000000  0.000000  0.000000  0.000000
                       0.000000  0.000000  0.000000  0.000000  0.000000  0.000000
                       0.000000  0.000000  0.000000  0.000000  0.000000  0.000000
                       0.000000  0.000000  0.000000  0.000000  0.000000  0.000000
                       0.000000  0.000000  0.000000  0.000000  0.000000  0.000000
                       0.000000  0.000000  0.000000  0.000000  0.000000  0.000000
                       0.000000  0.000000  0.000000  0.000000  0.000000  0.000000
                       0.000000  0.000000  0.000000  0.000000  0.000000  0.000000
                       0.000000  0.000000  0.000000  0.000000  0.000000  0.000000
                       0.000000  0.000000  0.000000  0.000000  0.000000  0.000000
                       0.000000  0.000000  0.000000  0.000000  0.000000  0.000000
                       0.000000  0.000000  0.000000  0.000000  0.000000  0.000000
                       0.000000  0.000000  0.000000  0.000000  0.000000  0.000000
                       0.000000  0.000000  0.000000  0.000000  0.000000  0.000000
                       0.000000  0.000000  0.000000  0.000000  0.000000  0.000000
                       0.000000  0.000000  0.000000  0.000000  0.000000  0.000000
                       0.000000  0.000000  0.000000  0.000000  0.000000  0.000000
                       0.000000  0.000000  0.000000  0.000000  0.000000  0.000000
                       0.000000  0.000000  0.000000  0.000000  0.000000  0.000000
                       0.000000  0.000000  0.000000  0.000000  0.000000  0.000000
                       0.000000  0.000000  0.000000  0.000000  0.000000  0.000000
                       0.000000  0.000000  0.000000  0.000000  0.000000  0.000000
                       0.000000  0.000000  0.000000  0.000000  0.000000  0.000000
                       0.000000  0.000000  0.000000  0.000000  0.000000  0.000000
                       0.000000  0.000000  0.000000  0.000000  0.000000  0.000000
                       0.000000  0.000000  0.000000  0.000000  0.000000  0.000000
                       0.000000  0.000000  0.000000  0.000000  0.000000  0.000000
                       0.000000  0.000000  0.000000  0.000000  0.000000  0.000000
                       0.000000  0.000000  0.000000  0.000000  0.000000  0.000000
                       0.000000  0.000000  0.000000  0.000000  0.000000  0.000000
                       0.000000  0.000000  0.000000  0.000000  0.000000  0.000000
                       0.000000  0.000000  0.000000  0.000000  0.000000  0.000000
                       0.000000  0.000000  0.000000  0.000000  0.000000  0.000000
                       0.000000  0.000000  0.000000  0.000000  0.000000  0.000000
                       0.000000  0.000000  0.000000  0.000000  0.000000  0.000000
                       0.000000  0.000000  0.000000  0.000000  0.000000  0.000000
                       0.000000  0.000000  0.000000  0.000000  0.000000  0.000000
                       0.000000  0.000000  0.000000  0.000000  0.000000  0.000000
                       0.000000  0.000000  0.000000  0.000000  0.000000  0.000000
                       0.000000  0.000000  0.000000  0.000000  0.000000  0.000000
                       0.000000  0.000000  0.000000  0.000000  0.000000  0.000000
                       0.000000  0.000000  0.000000  0.000000  0.000000  0.000000
                       0.000000  0.000000  0.000000  0.000000  0.000000  0.000000
                       0.000000  0.000000  0.000000  0.000000  0.000000  0.000000
                       0.000000  0.000000  0.000000  0.000000  0.000000  0.000000
                       0.000000  0.000000  0.000000  0.000000  0.000000  0.000000
                       0.000000  0.000000  0.000000  0.000000  0.000000  0.000000
                       0.000000  0.000000  0.000000  0.000000  0.000000  0.000000
                       0.000000  0.000000  0.000000  0.000000  0.000000  0.000000
                       0.000000  0.000000  0.000000  0.000000  0.000000  0.000000
                       0.000000  0.000000  0.000000  0.000000  0.000000  0.000000
                       0.000000  0.000000  0.000000  0.000000  0.000000  0.000000
                       0.000000  0.000000  0.000000  0.000000  0.000000  0.000000
                       0.000000  0.000000  0.000000  0.000000  0.000000  0.000000
                       0.000000  0.000000  0.000000  0.000000  0.000000  0.000000
                       0.000000  0.000000  0.000000  0.000000  0.000000  0.000000
                       0.000000  0.000000  0.000000  0.000000  0.000000  0.000000
                       0.000000  0.000000  0.000000  0.000000  0.000000  0.000000
                       0.000000  0.000000  0.000000  0.000000  0.000000  0.000000
                       0.000000  0.000000  0.000000  0.000000  0.000000  0.000000
                       0.000000  0.000000  0.000000  0.000000  0.000000  0.000000
                       0.000000  0.000000  0.000000  0.000000  0.000000  0.000000
                       0.000000  0.000000  0.000000  0.000000  0.000000  0.000000
                       0.000000  0.000000  0.000000  0.000000  0.000000  0.000000
        optdriver1          3
        optdriver2          4
            rprim      0.0000000000E+00  5.0000000000E-01  5.0000000000E-01
                       5.0000000000E-01  0.0000000000E+00  5.0000000000E-01
                       5.0000000000E-01  5.0000000000E-01  0.0000000000E+00
          spgroup         225
           symrel      1  0  0   0  1  0   0  0  1      -1  0  0   0 -1  0   0  0 -1
                       0 -1  1   0 -1  0   1 -1  0       0  1 -1   0  1  0  -1  1  0
                      -1  0  0  -1  0  1  -1  1  0       1  0  0   1  0 -1   1 -1  0
                       0  1 -1   1  0 -1   0  0 -1       0 -1  1  -1  0  1   0  0  1
                      -1  0  0  -1  1  0  -1  0  1       1  0  0   1 -1  0   1  0 -1
                       0 -1  1   1 -1  0   0 -1  0       0  1 -1  -1  1  0   0  1  0
                       1  0  0   0  0  1   0  1  0      -1  0  0   0  0 -1   0 -1  0
                       0  1 -1   0  0 -1   1  0 -1       0 -1  1   0  0  1  -1  0  1
                      -1  0  1  -1  1  0  -1  0  0       1  0 -1   1 -1  0   1  0  0
                       0 -1  0   1 -1  0   0 -1  1       0  1  0  -1  1  0   0  1 -1
                       1  0 -1   0  0 -1   0  1 -1      -1  0  1   0  0  1   0 -1  1
                       0  1  0   0  0  1   1  0  0       0 -1  0   0  0 -1  -1  0  0
                       1  0 -1   0  1 -1   0  0 -1      -1  0  1   0 -1  1   0  0  1
                       0 -1  0   0 -1  1   1 -1  0       0  1  0   0  1 -1  -1  1  0
                      -1  0  1  -1  0  0  -1  1  0       1  0 -1   1  0  0   1 -1  0
                       0  1  0   1  0  0   0  0  1       0 -1  0  -1  0  0   0  0 -1
                       0  0 -1   0  1 -1   1  0 -1       0  0  1   0 -1  1  -1  0  1
                       1 -1  0   0 -1  1   0 -1  0      -1  1  0   0  1 -1   0  1  0
                       0  0  1   1  0  0   0  1  0       0  0 -1  -1  0  0   0 -1  0
                      -1  1  0  -1  0  0  -1  0  1       1 -1  0   1  0  0   1  0 -1
                       0  0  1   0  1  0   1  0  0       0  0 -1   0 -1  0  -1  0  0
                       1 -1  0   0 -1  0   0 -1  1      -1  1  0   0  1  0   0  1 -1
                       0  0 -1   1  0 -1   0  1 -1       0  0  1  -1  0  1   0 -1  1
                      -1  1  0  -1  0  1  -1  0  0       1 -1  0   1  0 -1   1  0  0
           timopt          -1
            typat      1  2
              wtk        0.00195    0.01563    0.01563    0.01563    0.00781    0.01172
                         0.04688    0.04688    0.04688    0.04688    0.04688    0.02344
                         0.01172    0.04688    0.04688    0.04688    0.02344    0.01172
                         0.04688    0.02344    0.00586    0.04688    0.09375    0.04688
                         0.04688    0.09375    0.04688    0.02344    0.01172
           xangst      0.0000000000E+00  0.0000000000E+00  0.0000000000E+00
                       2.1065000000E+00  2.1065000000E+00  2.1065000000E+00
            xcart      0.0000000000E+00  0.0000000000E+00  0.0000000000E+00
                       3.9807080989E+00  3.9807080989E+00  3.9807080989E+00
             xred      0.0000000000E+00  0.0000000000E+00  0.0000000000E+00
                       5.0000000000E-01  5.0000000000E-01  5.0000000000E-01
            znucl       12.00000    8.00000

================================================================================

 chkinp: Checking input parameters for consistency, jdtset=   1.

 chkinp: Checking input parameters for consistency, jdtset=   2.

================================================================================
== DATASET  1 ==================================================================
-   mpi_nproc: 128, omp_nthreads: -1 (-1 if OMP is not activated)


--- !DatasetInfo
iteration_state: {dtset: 1, }
dimensions: {natom: 2, nkpt: 29, mband: 480, nsppol: 1, nspinor: 1, nspden: 1, mpw: 1840, }
cutoff_energies: {ecut:  45.0, pawecutdg:  -1.0, }
electrons: {nelect:   1.60000000E+01, charge:   0.00000000E+00, occopt:   1.00000000E+00, tsmear:   1.00000000E-02, }
meta: {optdriver: 3, gwcalctyp: 0, }
...

 mkfilename: getwfk from: ../outdata_gs_DS2_WFK

 Exchange-correlation functional for the present dataset will be:
  GGA: Perdew-Burke-Ernzerhof functional - ixc=11
 Citation for XC functional:
  J.P.Perdew, K.Burke, M.Ernzerhof, PRL 77, 3865 (1996)

 SCREENING: Calculation of the susceptibility and dielectric matrices 

 Based on a program developped by R.W. Godby, V. Olevano, G. Onida, and L. Reining.
 Incorporated in ABINIT by V. Olevano, G.-M. Rignanese, and M. Torrent.
.Using single precision arithmetic ; gwpc =  4

 Real(R)+Recip(G) space primitive vectors, cartesian coordinates (Bohr,Bohr^-1):
 R(1)=  0.0000000  3.9807081  3.9807081  G(1)= -0.1256058  0.1256058  0.1256058
 R(2)=  3.9807081  0.0000000  3.9807081  G(2)=  0.1256058 -0.1256058  0.1256058
 R(3)=  3.9807081  3.9807081  0.0000000  G(3)=  0.1256058  0.1256058 -0.1256058
 Unit cell volume ucvol=  1.2615690E+02 bohr^3
 Angles (23,13,12)=  6.00000000E+01  6.00000000E+01  6.00000000E+01 degrees

--- Pseudopotential description ------------------------------------------------
- pspini: atom type   1  psp file is ../Mg.psp8
- pspatm: opening atomic psp file    ../Mg.psp8
- Mg    ONCVPSP-3.2.3.1  r_core=   1.16056   1.56380
- 12.00000  10.00000    170504                znucl, zion, pspdat
    8   11    1    4       400   0.00000      pspcod,pspxc,lmax,lloc,mmax,r2well
    3.99000000000000    0.00000000000000    0.00000000000000   rchrg,fchrg,qchrg
     nproj     2     2
     extension_switch     1
  pspatm : epsatm=    9.22845333
         --- l  ekb(1:nproj) -->
             0    2.250005   -0.808630
             1   -6.469357   -2.503313
 pspatm: atomic psp has been read  and splines computed

- pspini: atom type   2  psp file is ../O.psp8
- pspatm: opening atomic psp file    ../O.psp8
- O     ONCVPSP-3.2.3.1  r_core=   1.35509   1.45563   1.26150
-  8.00000   6.00000    170504                znucl, zion, pspdat
    8   11    2    4       600   0.00000      pspcod,pspxc,lmax,lloc,mmax,r2well
    5.99000000000000    4.00000000000000    0.00000000000000   rchrg,fchrg,qchrg
     nproj     2     2     1
     extension_switch     1
  pspatm : epsatm=    6.19546011
         --- l  ekb(1:nproj) -->
             0    6.056735    0.824024
             1   -4.717130   -1.149271
             2   -1.331955
 pspatm: atomic psp has been read  and splines computed

   2.46782615E+02                                ecore*ucvol(ha*bohr**3)
--------------------------------------------------------------------------------

 ==== K-mesh for the wavefunctions ====
 Number of points in the irreducible wedge :    29
 Reduced coordinates and weights : 

     1)     0.00000000E+00  0.00000000E+00  0.00000000E+00       0.00195
     2)     1.25000000E-01  0.00000000E+00  0.00000000E+00       0.01563
     3)     2.50000000E-01  0.00000000E+00  0.00000000E+00       0.01563
     4)     3.75000000E-01  0.00000000E+00  0.00000000E+00       0.01563
     5)     5.00000000E-01  0.00000000E+00  0.00000000E+00       0.00781
     6)     1.25000000E-01  1.25000000E-01  0.00000000E+00       0.01172
     7)     2.50000000E-01  1.25000000E-01  0.00000000E+00       0.04688
     8)     3.75000000E-01  1.25000000E-01  0.00000000E+00       0.04688
     9)     5.00000000E-01  1.25000000E-01  0.00000000E+00       0.04688
    10)    -3.75000000E-01  1.25000000E-01  0.00000000E+00       0.04688
    11)    -2.50000000E-01  1.25000000E-01  0.00000000E+00       0.04688
    12)    -1.25000000E-01  1.25000000E-01  0.00000000E+00       0.02344
    13)     2.50000000E-01  2.50000000E-01  0.00000000E+00       0.01172
    14)     3.75000000E-01  2.50000000E-01  0.00000000E+00       0.04688
    15)     5.00000000E-01  2.50000000E-01  0.00000000E+00       0.04688
    16)    -3.75000000E-01  2.50000000E-01  0.00000000E+00       0.04688
    17)    -2.50000000E-01  2.50000000E-01  0.00000000E+00       0.02344
    18)     3.75000000E-01  3.75000000E-01  0.00000000E+00       0.01172
    19)     5.00000000E-01  3.75000000E-01  0.00000000E+00       0.04688
    20)    -3.75000000E-01  3.75000000E-01  0.00000000E+00       0.02344
    21)     5.00000000E-01  5.00000000E-01  0.00000000E+00       0.00586
    22)     3.75000000E-01  2.50000000E-01  1.25000000E-01       0.04688
    23)     5.00000000E-01  2.50000000E-01  1.25000000E-01       0.09375
    24)    -3.75000000E-01  2.50000000E-01  1.25000000E-01       0.04688
    25)     5.00000000E-01  3.75000000E-01  1.25000000E-01       0.04688
    26)    -3.75000000E-01  3.75000000E-01  1.25000000E-01       0.09375
    27)    -2.50000000E-01  3.75000000E-01  1.25000000E-01       0.04688
    28)    -3.75000000E-01  5.00000000E-01  1.25000000E-01       0.02344
    29)    -2.50000000E-01  5.00000000E-01  2.50000000E-01       0.01172

 Together with 48 symmetry operations and time-reversal symmetry 
 yields   512 points in the full Brillouin Zone.


 ==== Q-mesh for the screening function ====
 Number of points in the irreducible wedge :    29
 Reduced coordinates and weights : 

     1)     0.00000000E+00  0.00000000E+00  0.00000000E+00       0.00195
     2)     1.25000000E-01  0.00000000E+00  0.00000000E+00       0.01563
     3)     2.50000000E-01  0.00000000E+00  0.00000000E+00       0.01563
     4)     3.75000000E-01  0.00000000E+00  0.00000000E+00       0.01563
     5)     5.00000000E-01  0.00000000E+00  0.00000000E+00       0.00781
     6)     1.25000000E-01  1.25000000E-01  0.00000000E+00       0.01172
     7)     2.50000000E-01  1.25000000E-01  0.00000000E+00       0.04688
     8)     3.75000000E-01  1.25000000E-01  0.00000000E+00       0.04688
     9)     5.00000000E-01  1.25000000E-01  0.00000000E+00       0.04688
    10)    -3.75000000E-01  1.25000000E-01  0.00000000E+00       0.04688
    11)    -2.50000000E-01  1.25000000E-01  0.00000000E+00       0.04688
    12)    -1.25000000E-01  1.25000000E-01  0.00000000E+00       0.02344
    13)     2.50000000E-01  2.50000000E-01  0.00000000E+00       0.01172
    14)     3.75000000E-01  2.50000000E-01  0.00000000E+00       0.04688
    15)     5.00000000E-01  2.50000000E-01  0.00000000E+00       0.04688
    16)    -3.75000000E-01  2.50000000E-01  0.00000000E+00       0.04688
    17)    -2.50000000E-01  2.50000000E-01  0.00000000E+00       0.02344
    18)     3.75000000E-01  3.75000000E-01  0.00000000E+00       0.01172
    19)     5.00000000E-01  3.75000000E-01  0.00000000E+00       0.04688
    20)    -3.75000000E-01  3.75000000E-01  0.00000000E+00       0.02344
    21)     5.00000000E-01  5.00000000E-01  0.00000000E+00       0.00586
    22)     3.75000000E-01  2.50000000E-01  1.25000000E-01       0.04688
    23)     5.00000000E-01  2.50000000E-01  1.25000000E-01       0.09375
    24)    -3.75000000E-01  2.50000000E-01  1.25000000E-01       0.04688
    25)     5.00000000E-01  3.75000000E-01  1.25000000E-01       0.04688
    26)    -3.75000000E-01  3.75000000E-01  1.25000000E-01       0.09375
    27)    -2.50000000E-01  3.75000000E-01  1.25000000E-01       0.04688
    28)    -3.75000000E-01  5.00000000E-01  1.25000000E-01       0.02344
    29)    -2.50000000E-01  5.00000000E-01  2.50000000E-01       0.01172

 Together with 48 symmetry operations and time-reversal symmetry 
 yields   512 points in the full Brillouin Zone.


 setmesh: FFT mesh size selected  =    25x   25x   25
          total number of points  =        15625


- screening: taking advantage of time-reversal symmetry 
- Maximum band index for partially occupied states nbvw = 8
- Remaining bands to be divided among processors   nbcw = 472
- Number of bands treated by each node ~3

 Number of electrons calculated from density =   16.0000; Expected =   16.0000
 average of density, n =  0.126826
 r_s =    1.2347
 omega_plasma =   34.3526 [eV]


 calculating chi0 at frequencies [eV] :
  1    0.000000E+00    0.000000E+00
  2    0.000000E+00    3.435263E+01


--------------------------------------------------------------------------------
  q-point number  1        q = ( 0.000000, 0.000000, 0.000000) [r.l.u.]
--------------------------------------------------------------------------------
  chi0(G,G') at the    1 th omega   0.0000   0.0000 [eV]
       1       2       3       4       5       6       7       8       9
    1  -0.000  -0.000   0.000   0.000  -0.000  -0.000   0.000   0.000  -0.000
       -0.000  -0.000   0.000   0.000  -0.000  -0.000   0.000   0.000  -0.000

    2  -0.000  -8.300  -0.424  -1.530  -2.625  -1.530  -2.625  -1.530  -2.625
        0.000   0.000  -0.000   0.000   0.000   0.000   0.000  -0.000   0.000

  chi0(G,G') at the    2 th omega   0.0000  34.3526 [eV]
       1       2       3       4       5       6       7       8       9
    1  -0.000  -0.000   0.000   0.000  -0.000  -0.000   0.000   0.000  -0.000
       -0.000  -0.000   0.000   0.000  -0.000  -0.000   0.000   0.000  -0.000

    2  -0.000  -3.653   0.305  -0.074  -0.841  -0.074  -0.841  -0.074  -0.841
        0.000   0.000  -0.000   0.000   0.000   0.000   0.000  -0.000   0.000

 For q-point:  0.000010 0.000020 0.000030
  dielectric constant =   3.0194
  dielectric constant without local fields =   3.2427

  Average fulfillment of the sum rule on Im[epsilon] for q-point    1 :    106.55  [%]
  Heads and wings of the symmetrical epsilon^-1(G,G') 

   Upper and lower wings at the    1 th omega   0.0000   0.0000 [eV]
       1       2       3       4       5       6       7       8       9
      0.331  -0.014   0.014   0.043  -0.043  -0.043   0.043   0.014  -0.014
     -0.000  -0.000   0.000   0.000  -0.000  -0.000   0.000   0.000  -0.000
       1       2       3       4       5       6       7       8       9
      0.331  -0.014   0.014   0.043  -0.043  -0.043   0.043   0.014  -0.014
     -0.000   0.000  -0.000  -0.000   0.000   0.000  -0.000  -0.000   0.000


   Upper and lower wings at the    2 th omega   0.0000  34.3526 [eV]
       1       2       3       4       5       6       7       8       9
      0.755  -0.008   0.008   0.024  -0.024  -0.024   0.024   0.008  -0.008
      0.000  -0.000   0.000   0.000  -0.000  -0.000   0.000   0.000  -0.000
       1       2       3       4       5       6       7       8       9
      0.755  -0.008   0.008   0.024  -0.024  -0.024   0.024   0.008  -0.008
      0.000   0.000  -0.000  -0.000   0.000   0.000  -0.000  -0.000   0.000




--------------------------------------------------------------------------------
  q-point number  2        q = ( 0.125000, 0.000000, 0.000000) [r.l.u.]
--------------------------------------------------------------------------------
  chi0(G,G') at the    1 th omega   0.0000   0.0000 [eV]
       1       2       3       4       5       6       7       8       9
    1  -0.616   0.555  -0.520   0.056   0.393   0.056   0.393   0.056   0.393
        0.000   0.000   0.000  -0.000   0.000  -0.000   0.000  -0.000   0.000

    2   0.555  -8.465  -0.430  -1.744  -2.920  -1.744  -2.920  -1.744  -2.920
       -0.000   0.000  -0.000  -0.000   0.000  -0.000   0.000  -0.000   0.000

  chi0(G,G') at the    2 th omega   0.0000  34.3526 [eV]
       1       2       3       4       5       6       7       8       9
    1  -0.101   0.118  -0.111  -0.018   0.058  -0.018   0.058  -0.018   0.058
        0.000   0.000   0.000  -0.000   0.000  -0.000   0.000  -0.000   0.000

    2   0.118  -4.072   0.299  -0.189  -1.074  -0.189  -1.074  -0.189  -1.074
       -0.000   0.000  -0.000  -0.000   0.000  -0.000   0.000  -0.000   0.000

  Average fulfillment of the sum rule on Im[epsilon] for q-point    2 :    112.05  [%]


--------------------------------------------------------------------------------
  q-point number  3        q = ( 0.250000, 0.000000, 0.000000) [r.l.u.]
--------------------------------------------------------------------------------
  chi0(G,G') at the    1 th omega   0.0000   0.0000 [eV]
       1       2       3       4       5       6       7       8       9
    1  -2.087   1.003  -0.903   0.497   0.986   0.497   0.986   0.497   0.986
        0.000   0.000   0.000   0.000   0.000   0.000   0.000   0.000   0.000

    2   1.003  -8.479  -0.448  -1.903  -3.131  -1.903  -3.131  -1.903  -3.131
       -0.000   0.000  -0.000  -0.000   0.000  -0.000   0.000  -0.000   0.000

  chi0(G,G') at the    2 th omega   0.0000  34.3526 [eV]
       1       2       3       4       5       6       7       8       9
    1  -0.391   0.231  -0.202   0.008   0.146   0.008   0.146   0.008   0.146
        0.000   0.000   0.000   0.000   0.000   0.000   0.000   0.000   0.000

    2   0.231  -4.402   0.283  -0.311  -1.293  -0.311  -1.293  -0.311  -1.293
       -0.000   0.000  -0.000  -0.000   0.000  -0.000   0.000  -0.000   0.000

  Average fulfillment of the sum rule on Im[epsilon] for q-point    3 :    110.62  [%]


--------------------------------------------------------------------------------
  q-point number  4        q = ( 0.375000, 0.000000, 0.000000) [r.l.u.]
--------------------------------------------------------------------------------
  chi0(G,G') at the    1 th omega   0.0000   0.0000 [eV]
       1       2       3       4       5       6       7       8       9
    1  -3.760   1.286  -1.127   1.073   1.502   1.073   1.502   1.073   1.502
        0.000   0.000   0.000   0.000   0.000   0.000   0.000   0.000   0.000

    2   1.286  -8.381  -0.470  -1.978  -3.270  -1.978  -3.270  -1.978  -3.270
       -0.000   0.000  -0.000   0.000   0.000  -0.000   0.000   0.000   0.000

  chi0(G,G') at the    2 th omega   0.0000  34.3526 [eV]
       1       2       3       4       5       6       7       8       9
    1  -0.836   0.330  -0.261   0.074   0.250   0.074   0.250   0.074   0.250
        0.000   0.000   0.000   0.000   0.000   0.000   0.000   0.000   0.000

    2   0.330  -4.644   0.257  -0.432  -1.492  -0.432  -1.492  -0.432  -1.492
       -0.000   0.000  -0.000   0.000   0.000  -0.000   0.000   0.000   0.000

  Average fulfillment of the sum rule on Im[epsilon] for q-point    4 :    109.43  [%]


--------------------------------------------------------------------------------
  q-point number  5        q = ( 0.500000, 0.000000, 0.000000) [r.l.u.]
--------------------------------------------------------------------------------
  chi0(G,G') at the    1 th omega   0.0000   0.0000 [eV]
       1       2       3       4       5       6       7       8       9
    1  -5.252   1.437  -1.201   1.603   1.835   1.603   1.835   1.603   1.835
        0.000   0.000   0.000   0.000   0.000   0.000   0.000   0.000   0.000

    2   1.437  -8.192  -0.483  -1.976  -3.365  -1.976  -3.365  -1.976  -3.365
       -0.000   0.000  -0.000   0.000   0.000  -0.000   0.000   0.000   0.000

  chi0(G,G') at the    2 th omega   0.0000  34.3526 [eV]
       1       2       3       4       5       6       7       8       9
    1  -1.385   0.408  -0.282   0.170   0.356   0.170   0.356   0.170   0.356
        0.000   0.000   0.000   0.000   0.000   0.000   0.000   0.000   0.000

    2   0.408  -4.801   0.221  -0.548  -1.666  -0.548  -1.666  -0.548  -1.666
       -0.000   0.000  -0.000   0.000   0.000   0.000   0.000   0.000   0.000

  Average fulfillment of the sum rule on Im[epsilon] for q-point    5 :    109.00  [%]


--------------------------------------------------------------------------------
  q-point number  6        q = ( 0.125000, 0.125000, 0.000000) [r.l.u.]
--------------------------------------------------------------------------------
  chi0(G,G') at the    1 th omega   0.0000   0.0000 [eV]
       1       2       3       4       5       6       7       8       9
    1  -0.815   0.565  -0.105  -0.105   0.565  -0.105   0.565   0.565  -0.105
        0.000   0.000   0.000   0.000   0.000   0.000   0.000   0.000   0.000

    2   0.565  -8.489  -0.562  -1.605  -2.962  -1.605  -2.962  -1.922  -2.672
       -0.000   0.000  -0.000  -0.000   0.000  -0.000   0.000  -0.000  -0.000

  chi0(G,G') at the    2 th omega   0.0000  34.3526 [eV]
       1       2       3       4       5       6       7       8       9
    1  -0.134   0.096  -0.054  -0.054   0.096  -0.054   0.096   0.096  -0.054
        0.000   0.000   0.000   0.000   0.000   0.000   0.000   0.000   0.000

    2   0.096  -3.962   0.283  -0.093  -1.082  -0.093  -1.082  -0.295  -0.860
       -0.000   0.000  -0.000  -0.000   0.000  -0.000   0.000  -0.000  -0.000

  Average fulfillment of the sum rule on Im[epsilon] for q-point    6 :    111.86  [%]


--------------------------------------------------------------------------------
  q-point number  7        q = ( 0.250000, 0.125000, 0.000000) [r.l.u.]
--------------------------------------------------------------------------------
  chi0(G,G') at the    1 th omega   0.0000   0.0000 [eV]
       1       2       3       4       5       6       7       8       9
    1  -1.978   1.009  -0.511   0.192   1.003   0.192   1.003   0.890   0.621
        0.000   0.000   0.000   0.000   0.000   0.000   0.000   0.000   0.000

    2   1.009  -8.530  -0.570  -1.792  -3.161  -1.792  -3.161  -2.051  -2.965
       -0.000   0.000  -0.000  -0.000   0.000  -0.000   0.000   0.000  -0.000

  chi0(G,G') at the    2 th omega   0.0000  34.3526 [eV]
       1       2       3       4       5       6       7       8       9
    1  -0.360   0.209  -0.150  -0.044   0.166  -0.044   0.166   0.111   0.042
        0.000   0.000   0.000   0.000   0.000   0.000   0.000   0.000   0.000

    2   0.209  -4.316   0.271  -0.215  -1.294  -0.215  -1.294  -0.406  -1.105
       -0.000   0.000  -0.000  -0.000   0.000  -0.000   0.000   0.000   0.000

  Average fulfillment of the sum rule on Im[epsilon] for q-point    7 :    110.76  [%]


--------------------------------------------------------------------------------
  q-point number  8        q = ( 0.375000, 0.125000, 0.000000) [r.l.u.]
--------------------------------------------------------------------------------
  chi0(G,G') at the    1 th omega   0.0000   0.0000 [eV]
       1       2       3       4       5       6       7       8       9
    1  -3.542   1.311  -0.779   0.752   1.466   0.752   1.466   1.351   1.313
        0.000   0.000   0.000   0.000   0.000   0.000   0.000   0.000   0.000

    2   1.311  -8.452  -0.581  -1.906  -3.299  -1.906  -3.299  -2.111  -3.155
       -0.000   0.000  -0.000  -0.000   0.000  -0.000   0.000   0.000  -0.000

  chi0(G,G') at the    2 th omega   0.0000  34.3526 [eV]
       1       2       3       4       5       6       7       8       9
    1  -0.750   0.310  -0.219   0.010   0.255   0.010   0.255   0.160   0.160
        0.000   0.000   0.000   0.000   0.000   0.000   0.000   0.000   0.000

    2   0.310  -4.582   0.248  -0.341  -1.488  -0.341  -1.488  -0.516  -1.330
       -0.000   0.000  -0.000  -0.000   0.000  -0.000   0.000   0.000   0.000

  Average fulfillment of the sum rule on Im[epsilon] for q-point    8 :    109.59  [%]


--------------------------------------------------------------------------------
  q-point number  9        q = ( 0.500000, 0.125000, 0.000000) [r.l.u.]
--------------------------------------------------------------------------------
  chi0(G,G') at the    1 th omega   0.0000   0.0000 [eV]
       1       2       3       4       5       6       7       8       9
    1  -5.044   1.477  -0.902   1.344   1.800   1.344   1.800   1.793   1.801
        0.000   0.000   0.000   0.000   0.000   0.000   0.000   0.000   0.000

    2   1.477  -8.283  -0.588  -1.938  -3.394  -1.938  -3.394  -2.104  -3.280
       -0.000   0.000  -0.000  -0.000   0.000  -0.000   0.000   0.000  -0.000

  chi0(G,G') at the    2 th omega   0.0000  34.3526 [eV]
       1       2       3       4       5       6       7       8       9
    1  -1.261   0.392  -0.252   0.100   0.350   0.100   0.350   0.237   0.285
        0.000   0.000   0.000   0.000   0.000   0.000   0.000   0.000   0.000

    2   0.392  -4.763   0.217  -0.463  -1.659  -0.463  -1.659  -0.622  -1.530
       -0.000   0.000  -0.000   0.000   0.000  -0.000   0.000   0.000   0.000

  Average fulfillment of the sum rule on Im[epsilon] for q-point    9 :    108.98  [%]


--------------------------------------------------------------------------------
  q-point number 10        q = (-0.375000, 0.125000, 0.000000) [r.l.u.]
--------------------------------------------------------------------------------
  chi0(G,G') at the    1 th omega   0.0000   0.0000 [eV]
       1       2       3       4       5       6       7       8       9
    1  -4.570  -0.880   1.432   1.712   1.554   1.712   1.554   1.664   0.817
        0.000  -0.000  -0.000  -0.000  -0.000  -0.000  -0.000  -0.000   0.000

    2  -0.880  -6.285  -0.585  -0.803  -1.650  -0.803  -1.650  -1.156  -0.747
        0.000   0.000  -0.000  -0.000  -0.000  -0.000  -0.000  -0.000  -0.000

  chi0(G,G') at the    2 th omega   0.0000  34.3526 [eV]
       1       2       3       4       5       6       7       8       9
    1  -1.081  -0.245   0.367   0.273   0.168   0.273   0.168   0.335   0.004
        0.000  -0.000  -0.000  -0.000  -0.000  -0.000  -0.000  -0.000   0.000

    2  -0.245  -1.839   0.228   0.229  -0.245   0.229  -0.245   0.034   0.093
        0.000   0.000  -0.000  -0.000  -0.000  -0.000  -0.000  -0.000  -0.000

  Average fulfillment of the sum rule on Im[epsilon] for q-point   10 :    109.11  [%]


--------------------------------------------------------------------------------
  q-point number 11        q = (-0.250000, 0.125000, 0.000000) [r.l.u.]
--------------------------------------------------------------------------------
  chi0(G,G') at the    1 th omega   0.0000   0.0000 [eV]
       1       2       3       4       5       6       7       8       9
    1  -3.006  -0.711   1.224   1.223   1.051   1.223   1.051   1.307   0.146
        0.000  -0.000  -0.000  -0.000  -0.000  -0.000  -0.000  -0.000   0.000

    2  -0.711  -7.227  -0.575  -0.979  -2.041  -0.979  -2.041  -1.352  -1.279
        0.000   0.000  -0.000  -0.000  -0.000  -0.000  -0.000  -0.000  -0.000

  chi0(G,G') at the    2 th omega   0.0000  34.3526 [eV]
       1       2       3       4       5       6       7       8       9
    1  -0.604  -0.200   0.278   0.160   0.096   0.160   0.096   0.248  -0.080
        0.000  -0.000  -0.000  -0.000  -0.000  -0.000  -0.000   0.000  -0.000

    2  -0.200  -2.436   0.257   0.186  -0.427   0.186  -0.427  -0.020  -0.109
        0.000   0.000  -0.000  -0.000  -0.000  -0.000   0.000  -0.000  -0.000

  Average fulfillment of the sum rule on Im[epsilon] for q-point   11 :    109.94  [%]


--------------------------------------------------------------------------------
  q-point number 12        q = (-0.125000, 0.125000, 0.000000) [r.l.u.]
--------------------------------------------------------------------------------
  chi0(G,G') at the    1 th omega   0.0000   0.0000 [eV]
       1       2       3       4       5       6       7       8       9
    1  -1.505  -0.394   0.871   0.598   0.598   0.598   0.598   0.871  -0.394
        0.000  -0.000  -0.000  -0.000  -0.000  -0.000  -0.000  -0.000  -0.000

    2  -0.394  -7.884  -0.565  -1.171  -2.391  -1.171  -2.391  -1.548  -1.793
        0.000   0.000  -0.000  -0.000  -0.000  -0.000   0.000  -0.000  -0.000

  chi0(G,G') at the    2 th omega   0.0000  34.3526 [eV]
       1       2       3       4       5       6       7       8       9
    1  -0.265  -0.120   0.172   0.058   0.058   0.058   0.058   0.172  -0.120
        0.000  -0.000  -0.000  -0.000  -0.000  -0.000  -0.000  -0.000  -0.000

    2  -0.120  -3.007   0.276   0.115  -0.637   0.115  -0.637  -0.096  -0.347
        0.000   0.000  -0.000  -0.000  -0.000  -0.000   0.000  -0.000  -0.000

  Average fulfillment of the sum rule on Im[epsilon] for q-point   12 :    111.17  [%]


--------------------------------------------------------------------------------
  q-point number 13        q = ( 0.250000, 0.250000, 0.000000) [r.l.u.]
--------------------------------------------------------------------------------
  chi0(G,G') at the    1 th omega   0.0000   0.0000 [eV]
       1       2       3       4       5       6       7       8       9
    1  -2.694   1.239   0.279   0.279   1.239   0.279   1.239   1.239   0.279
        0.000   0.000   0.000   0.000   0.000   0.000   0.000   0.000   0.000

    2   1.239  -8.627  -0.883  -1.764  -3.244  -1.764  -3.244  -2.151  -2.771
       -0.000   0.000  -0.000  -0.000   0.000  -0.000   0.000   0.000  -0.000

  chi0(G,G') at the    2 th omega   0.0000  34.3526 [eV]
       1       2       3       4       5       6       7       8       9
    1  -0.514   0.215  -0.053  -0.053   0.215  -0.053   0.215   0.215  -0.053
        0.000   0.000   0.000   0.000   0.000   0.000   0.000   0.000   0.000

    2   0.215  -4.254   0.222  -0.147  -1.319  -0.147  -1.319  -0.505  -0.916
       -0.000   0.000  -0.000  -0.000   0.000  -0.000   0.000   0.000  -0.000

  Average fulfillment of the sum rule on Im[epsilon] for q-point   13 :    110.21  [%]


--------------------------------------------------------------------------------
  q-point number 14        q = ( 0.375000, 0.250000, 0.000000) [r.l.u.]
--------------------------------------------------------------------------------
  chi0(G,G') at the    1 th omega   0.0000   0.0000 [eV]
       1       2       3       4       5       6       7       8       9
    1  -3.910   1.489   0.006   0.695   1.565   0.695   1.565   1.580   1.113
        0.000   0.000   0.000   0.000   0.000   0.000   0.000   0.000   0.000

    2   1.489  -8.552  -0.874  -1.884  -3.364  -1.884  -3.364  -2.194  -3.027
       -0.000   0.000  -0.000  -0.000   0.000  -0.000   0.000  -0.000  -0.000

  chi0(G,G') at the    2 th omega   0.0000  34.3526 [eV]
       1       2       3       4       5       6       7       8       9
    1  -0.834   0.311  -0.125  -0.015   0.285  -0.015   0.285   0.250   0.075
        0.000   0.000   0.000   0.000   0.000   0.000   0.000   0.000   0.000

    2   0.311  -4.534   0.204  -0.272  -1.504  -0.272  -1.504  -0.605  -1.165
       -0.000   0.000  -0.000  -0.000   0.000  -0.000   0.000   0.000   0.000

  Average fulfillment of the sum rule on Im[epsilon] for q-point   14 :    109.42  [%]


--------------------------------------------------------------------------------
  q-point number 15        q = ( 0.500000, 0.250000, 0.000000) [r.l.u.]
--------------------------------------------------------------------------------
  chi0(G,G') at the    1 th omega   0.0000   0.0000 [eV]
       1       2       3       4       5       6       7       8       9
    1  -5.239   1.629  -0.161   1.257   1.847   1.257   1.847   1.926   1.759
        0.000   0.000   0.000   0.000   0.000   0.000   0.000   0.000   0.000

    2   1.629  -8.386  -0.855  -1.934  -3.450  -1.934  -3.450  -2.187  -3.191
       -0.000   0.000  -0.000  -0.000   0.000  -0.000   0.000   0.000  -0.000

  chi0(G,G') at the    2 th omega   0.0000  34.3526 [eV]
       1       2       3       4       5       6       7       8       9
    1  -1.284   0.392  -0.168   0.063   0.365   0.063   0.365   0.309   0.215
        0.000   0.000   0.000   0.000   0.000   0.000   0.000   0.000   0.000

    2   0.392  -4.731   0.176  -0.396  -1.669  -0.396  -1.669  -0.701  -1.389
       -0.000   0.000  -0.000   0.000   0.000  -0.000   0.000   0.000   0.000

  Average fulfillment of the sum rule on Im[epsilon] for q-point   15 :    108.89  [%]


--------------------------------------------------------------------------------
  q-point number 16        q = (-0.375000, 0.250000, 0.000000) [r.l.u.]
--------------------------------------------------------------------------------
  chi0(G,G') at the    1 th omega   0.0000   0.0000 [eV]
       1       2       3       4       5       6       7       8       9
    1  -5.684  -0.198   1.643   2.034   2.021   2.034   2.021   1.765   0.660
        0.000  -0.000  -0.000  -0.000  -0.000   0.000  -0.000  -0.000   0.000

    2  -0.198  -6.418  -0.828  -0.868  -1.941  -0.868  -1.941  -1.346  -0.048
        0.000   0.000  -0.000  -0.000  -0.000  -0.000  -0.000  -0.000  -0.000

  chi0(G,G') at the    2 th omega   0.0000  34.3526 [eV]
       1       2       3       4       5       6       7       8       9
    1  -1.456  -0.174   0.414   0.321   0.277   0.321   0.277   0.408  -0.042
        0.000  -0.000  -0.000  -0.000  -0.000  -0.000  -0.000  -0.000   0.000

    2  -0.174  -1.816   0.167   0.240  -0.371   0.240  -0.371  -0.109   0.316
        0.000   0.000  -0.000  -0.000  -0.000  -0.000  -0.000  -0.000  -0.000

  Average fulfillment of the sum rule on Im[epsilon] for q-point   16 :    108.83  [%]


--------------------------------------------------------------------------------
  q-point number 17        q = (-0.250000, 0.250000, 0.000000) [r.l.u.]
--------------------------------------------------------------------------------
  chi0(G,G') at the    1 th omega   0.0000   0.0000 [eV]
       1       2       3       4       5       6       7       8       9
    1  -4.347  -0.095   1.529   1.616   1.616   1.616   1.616   1.529  -0.095
        0.000  -0.000  -0.000  -0.000  -0.000   0.000  -0.000  -0.000  -0.000

    2  -0.095  -7.342  -0.853  -1.023  -2.288  -1.023  -2.288  -1.541  -0.655
        0.000   0.000  -0.000  -0.000  -0.000  -0.000  -0.000  -0.000  -0.000

  chi0(G,G') at the    2 th omega   0.0000  34.3526 [eV]
       1       2       3       4       5       6       7       8       9
    1  -0.973  -0.143   0.340   0.206   0.206   0.206   0.206   0.340  -0.143
        0.000  -0.000  -0.000  -0.000  -0.000  -0.000  -0.000  -0.000  -0.000

    2  -0.143  -2.381   0.196   0.215  -0.527   0.215  -0.527  -0.158   0.127
        0.000   0.000  -0.000  -0.000  -0.000  -0.000  -0.000  -0.000  -0.000

  Average fulfillment of the sum rule on Im[epsilon] for q-point   17 :    109.22  [%]


--------------------------------------------------------------------------------
  q-point number 18        q = ( 0.375000, 0.375000, 0.000000) [r.l.u.]
--------------------------------------------------------------------------------
  chi0(G,G') at the    1 th omega   0.0000   0.0000 [eV]
       1       2       3       4       5       6       7       8       9
    1  -4.688   1.732   0.909   0.909   1.732   0.909   1.732   1.732   0.909
        0.000   0.000   0.000   0.000   0.000   0.000   0.000   0.000   0.000

    2   1.732  -8.632  -1.220  -1.901  -3.431  -1.901  -3.431  -2.228  -2.858
       -0.000   0.000  -0.000  -0.000   0.000  -0.000   0.000   0.000  -0.000

  chi0(G,G') at the    2 th omega   0.0000  34.3526 [eV]
       1       2       3       4       5       6       7       8       9
    1  -1.077   0.336   0.005   0.005   0.336   0.005   0.336   0.336   0.005
        0.000   0.000   0.000   0.000   0.000   0.000   0.000   0.000   0.000

    2   0.336  -4.505   0.127  -0.231  -1.539  -0.231  -1.539  -0.694  -1.004
       -0.000   0.000  -0.000  -0.000   0.000  -0.000   0.000   0.000  -0.000

  Average fulfillment of the sum rule on Im[epsilon] for q-point   18 :    109.04  [%]


--------------------------------------------------------------------------------
  q-point number 19        q = ( 0.500000, 0.375000, 0.000000) [r.l.u.]
--------------------------------------------------------------------------------
  chi0(G,G') at the    1 th omega   0.0000   0.0000 [eV]
       1       2       3       4       5       6       7       8       9
    1  -5.675   1.813   0.731   1.326   1.914   1.326   1.914   1.983   1.677
        0.000   0.000   0.000   0.000   0.000   0.000   0.000   0.000   0.000

    2   1.813  -8.466  -1.176  -1.943  -3.505  -1.943  -3.505  -2.224  -3.072
       -0.000   0.000  -0.000  -0.000   0.000  -0.000   0.000  -0.000  -0.000

  chi0(G,G') at the    2 th omega   0.0000  34.3526 [eV]
       1       2       3       4       5       6       7       8       9
    1  -1.452   0.409  -0.042   0.066   0.397   0.066   0.397   0.379   0.153
        0.000   0.000   0.000   0.000   0.000   0.000   0.000   0.000   0.000

    2   0.409  -4.709   0.105  -0.353  -1.693  -0.353  -1.693  -0.779  -1.249
       -0.000   0.000  -0.000   0.000   0.000  -0.000   0.000   0.000   0.000

  Average fulfillment of the sum rule on Im[epsilon] for q-point   19 :    108.74  [%]


--------------------------------------------------------------------------------
  q-point number 20        q = (-0.375000, 0.375000, 0.000000) [r.l.u.]
--------------------------------------------------------------------------------
  chi0(G,G') at the    1 th omega   0.0000   0.0000 [eV]
       1       2       3       4       5       6       7       8       9
    1  -6.756   0.634   1.801   2.354   2.354   2.354   2.354   1.801   0.634
        0.000  -0.000  -0.000   0.000   0.000   0.000  -0.000  -0.000  -0.000

    2   0.634  -6.670  -1.054  -1.038  -2.206  -1.038  -2.206  -1.449   0.567
        0.000   0.000  -0.000  -0.000  -0.000  -0.000  -0.000  -0.000  -0.000

  chi0(G,G') at the    2 th omega   0.0000  34.3526 [eV]
       1       2       3       4       5       6       7       8       9
    1  -1.922  -0.058   0.464   0.386   0.386   0.386   0.386   0.464  -0.058
        0.000  -0.000  -0.000  -0.000   0.000  -0.000  -0.000  -0.000  -0.000

    2  -0.058  -1.917   0.079   0.200  -0.536   0.200  -0.536  -0.253   0.480
        0.000   0.000  -0.000  -0.000  -0.000  -0.000  -0.000  -0.000  -0.000

  Average fulfillment of the sum rule on Im[epsilon] for q-point   20 :    108.69  [%]


--------------------------------------------------------------------------------
  q-point number 21        q = ( 0.500000, 0.500000, 0.000000) [r.l.u.]
--------------------------------------------------------------------------------
  chi0(G,G') at the    1 th omega   0.0000   0.0000 [eV]
       1       2       3       4       5       6       7       8       9
    1  -6.269   1.986   1.547   1.547   1.986   1.547   1.986   1.986   1.547
        0.000   0.000   0.000   0.000   0.000   0.000   0.000   0.000   0.000

    2   1.986  -8.499  -1.459  -1.953  -3.545  -1.953  -3.545  -2.227  -2.895
       -0.000   0.000  -0.000  -0.000  -0.000  -0.000  -0.000  -0.000  -0.000

  chi0(G,G') at the    2 th omega   0.0000  34.3526 [eV]
       1       2       3       4       5       6       7       8       9
    1  -1.745   0.440   0.108   0.108   0.440   0.108   0.440   0.440   0.108
        0.000   0.000   0.000   0.000   0.000   0.000   0.000   0.000   0.000

    2   0.440  -4.700   0.011  -0.338  -1.731  -0.338  -1.731  -0.855  -1.119
       -0.000   0.000  -0.000  -0.000  -0.000  -0.000  -0.000  -0.000  -0.000

  Average fulfillment of the sum rule on Im[epsilon] for q-point   21 :    108.67  [%]


--------------------------------------------------------------------------------
  q-point number 22        q = ( 0.375000, 0.250000, 0.125000) [r.l.u.]
--------------------------------------------------------------------------------
  chi0(G,G') at the    1 th omega   0.0000   0.0000 [eV]
       1       2       3       4       5       6       7       8       9
    1  -3.161   1.326  -0.135   0.955   1.339  -0.135   1.326   1.339   0.955
        0.000   0.000   0.000   0.000   0.000   0.000   0.000   0.000   0.000

    2   1.326  -8.565  -0.783  -2.028  -3.247  -1.609  -3.302  -2.158  -3.030
       -0.000   0.000  -0.000  -0.000  -0.000  -0.000   0.000  -0.000  -0.000

  chi0(G,G') at the    2 th omega   0.0000  34.3526 [eV]
       1       2       3       4       5       6       7       8       9
    1  -0.634   0.269  -0.128   0.066   0.192  -0.128   0.269   0.192   0.066
        0.000   0.000   0.000   0.000   0.000   0.000   0.000   0.000   0.000

    2   0.269  -4.438   0.229  -0.352  -1.331  -0.135  -1.478  -0.516  -1.143
       -0.000   0.000  -0.000  -0.000   0.000  -0.000   0.000  -0.000   0.000

  Average fulfillment of the sum rule on Im[epsilon] for q-point   22 :    109.87  [%]


--------------------------------------------------------------------------------
  q-point number 23        q = ( 0.500000, 0.250000, 0.125000) [r.l.u.]
--------------------------------------------------------------------------------
  chi0(G,G') at the    1 th omega   0.0000   0.0000 [eV]
       1       2       3       4       5       6       7       8       9
    1  -4.586   1.527  -0.342   1.441   1.755   0.508   1.646   1.738   1.608
        0.000   0.000   0.000   0.000   0.000   0.000   0.000   0.000   0.000

    2   1.527  -8.437  -0.775  -2.070  -3.360  -1.736  -3.407  -2.174  -3.199
       -0.000   0.000  -0.000   0.000  -0.000  -0.000   0.000   0.000  -0.000

  chi0(G,G') at the    2 th omega   0.0000  34.3526 [eV]
       1       2       3       4       5       6       7       8       9
    1  -1.053   0.358  -0.182   0.128   0.288  -0.057   0.342   0.246   0.194
        0.000   0.000   0.000   0.000   0.000   0.000   0.000   0.000   0.000

    2   0.358  -4.667   0.204  -0.468  -1.522  -0.269  -1.644  -0.618  -1.366
       -0.000   0.000  -0.000   0.000   0.000  -0.000   0.000   0.000   0.000

  Average fulfillment of the sum rule on Im[epsilon] for q-point   23 :    109.12  [%]


--------------------------------------------------------------------------------
  q-point number 24        q = (-0.375000, 0.250000, 0.125000) [r.l.u.]
--------------------------------------------------------------------------------
  chi0(G,G') at the    1 th omega   0.0000   0.0000 [eV]
       1       2       3       4       5       6       7       8       9
    1  -5.899  -0.412   1.623   2.037   1.915   2.043   2.094   1.859   1.183
        0.000  -0.000  -0.000  -0.000   0.000   0.000  -0.000  -0.000   0.000

    2  -0.412  -5.899  -0.754  -1.022  -1.373  -0.503  -1.857  -1.212  -0.262
        0.000   0.000  -0.000  -0.000  -0.000  -0.000  -0.000  -0.000  -0.000

  chi0(G,G') at the    2 th omega   0.0000  34.3526 [eV]
       1       2       3       4       5       6       7       8       9
    1  -1.573  -0.201   0.428   0.385   0.217   0.323   0.322   0.417   0.051
        0.000  -0.000  -0.000  -0.000   0.000   0.000  -0.000   0.000   0.000

    2  -0.201  -1.573   0.170   0.130  -0.106   0.341  -0.385  -0.035   0.259
        0.000   0.000  -0.000  -0.000  -0.000  -0.000  -0.000  -0.000  -0.000

  Average fulfillment of the sum rule on Im[epsilon] for q-point   24 :    108.84  [%]


--------------------------------------------------------------------------------
  q-point number 25        q = ( 0.500000, 0.375000, 0.125000) [r.l.u.]
--------------------------------------------------------------------------------
  chi0(G,G') at the    1 th omega   0.0000   0.0000 [eV]
       1       2       3       4       5       6       7       8       9
    1  -4.997   1.709   0.484   1.480   1.857   0.484   1.709   1.857   1.480
        0.000   0.000   0.000   0.000   0.000   0.000   0.000   0.000   0.000

    2   1.709  -8.526  -1.079  -2.080  -3.429  -1.710  -3.457  -2.225  -3.077
       -0.000   0.000  -0.000  -0.000  -0.000  -0.000   0.000  -0.000  -0.000

  chi0(G,G') at the    2 th omega   0.0000  34.3526 [eV]
       1       2       3       4       5       6       7       8       9
    1  -1.182   0.368  -0.073   0.122   0.325  -0.073   0.368   0.325   0.122
        0.000   0.000   0.000   0.000   0.000   0.000   0.000   0.000   0.000

    2   0.368  -4.634   0.146  -0.418  -1.547  -0.206  -1.661  -0.701  -1.215
       -0.000   0.000  -0.000  -0.000  -0.000  -0.000   0.000  -0.000   0.000

  Average fulfillment of the sum rule on Im[epsilon] for q-point   25 :    108.95  [%]


--------------------------------------------------------------------------------
  q-point number 26        q = (-0.375000, 0.375000, 0.125000) [r.l.u.]
--------------------------------------------------------------------------------
  chi0(G,G') at the    1 th omega   0.0000   0.0000 [eV]
       1       2       3       4       5       6       7       8       9
    1  -6.850   0.366   1.772   2.302   2.361   2.354   2.359   1.877   1.127
        0.000  -0.000  -0.000  -0.000   0.000   0.000  -0.000   0.000   0.000

    2   0.366  -6.134  -0.961  -1.134  -1.785  -0.662  -2.081  -1.342   0.384
        0.000   0.000  -0.000  -0.000  -0.000  -0.000  -0.000  -0.000  -0.000

  chi0(G,G') at the    2 th omega   0.0000  34.3526 [eV]
       1       2       3       4       5       6       7       8       9
    1  -1.983  -0.101   0.469   0.436   0.338   0.381   0.412   0.471   0.028
        0.000  -0.000  -0.000  -0.000   0.000   0.000  -0.000   0.000   0.000

    2  -0.101  -1.639   0.096   0.108  -0.285   0.315  -0.526  -0.179   0.438
        0.000   0.000  -0.000  -0.000  -0.000  -0.000  -0.000  -0.000  -0.000

  Average fulfillment of the sum rule on Im[epsilon] for q-point   26 :    108.73  [%]


--------------------------------------------------------------------------------
  q-point number 27        q = (-0.250000, 0.375000, 0.125000) [r.l.u.]
--------------------------------------------------------------------------------
  chi0(G,G') at the    1 th omega   0.0000   0.0000 [eV]
       1       2       3       4       5       6       7       8       9
    1  -5.783   0.372   1.744   2.080   2.000   2.000   2.080   1.744   0.372
        0.000  -0.000   0.000  -0.000   0.000   0.000  -0.000   0.000  -0.000

    2   0.372  -7.115  -1.031  -1.302  -2.129  -0.737  -2.392  -1.552  -0.177
        0.000   0.000  -0.000   0.000  -0.000  -0.000   0.000  -0.000  -0.000

  chi0(G,G') at the    2 th omega   0.0000  34.3526 [eV]
       1       2       3       4       5       6       7       8       9
    1  -1.479  -0.096   0.415   0.342   0.256   0.256   0.342   0.415  -0.096
        0.000  -0.000  -0.000   0.000   0.000   0.000   0.000   0.000  -0.000

    2  -0.096  -2.158   0.129   0.099  -0.410   0.326  -0.645  -0.214   0.296
        0.000   0.000  -0.000  -0.000  -0.000  -0.000  -0.000  -0.000  -0.000

  Average fulfillment of the sum rule on Im[epsilon] for q-point   27 :    108.78  [%]


--------------------------------------------------------------------------------
  q-point number 28        q = (-0.375000, 0.500000, 0.125000) [r.l.u.]
--------------------------------------------------------------------------------
  chi0(G,G') at the    1 th omega   0.0000   0.0000 [eV]
       1       2       3       4       5       6       7       8       9
    1  -7.655   1.188   1.863   2.521   2.622   2.622   2.521   1.863   1.188
        0.000  -0.000   0.000  -0.000   0.000   0.000  -0.000   0.000  -0.000

    2   1.188  -6.497  -1.104  -1.300  -2.132  -0.934  -2.286  -1.388   0.846
        0.000   0.000  -0.000  -0.000  -0.000  -0.000   0.000  -0.000  -0.000

  chi0(G,G') at the    2 th omega   0.0000  34.3526 [eV]
       1       2       3       4       5       6       7       8       9
    1  -2.450   0.033   0.509   0.495   0.451   0.451   0.495   0.509   0.033
        0.000  -0.000   0.000  -0.000   0.000   0.000  -0.000   0.000  -0.000

    2   0.033  -1.832   0.001   0.042  -0.498   0.236  -0.698  -0.321   0.544
        0.000   0.000  -0.000  -0.000  -0.000  -0.000  -0.000  -0.000  -0.000

  Average fulfillment of the sum rule on Im[epsilon] for q-point   28 :    108.68  [%]


--------------------------------------------------------------------------------
  q-point number 29        q = (-0.250000, 0.500000, 0.250000) [r.l.u.]
--------------------------------------------------------------------------------
  chi0(G,G') at the    1 th omega   0.0000   0.0000 [eV]
       1       2       3       4       5       6       7       8       9
    1  -7.044   1.055   1.891   2.311   2.390   2.390   2.311   1.891   1.055
        0.000  -0.000   0.000   0.000   0.000   0.000   0.000   0.000  -0.000

    2   1.055  -7.044  -1.202  -1.506  -2.071  -0.631  -2.459  -1.570  -0.016
        0.000   0.000  -0.000  -0.000  -0.000  -0.000  -0.000  -0.000  -0.000

  chi0(G,G') at the    2 th omega   0.0000  34.3526 [eV]
       1       2       3       4       5       6       7       8       9
    1  -2.080   0.006   0.481   0.459   0.336   0.336   0.459   0.481   0.006
        0.000  -0.000   0.000   0.000   0.000   0.000   0.000   0.000  -0.000

    2   0.006  -2.080   0.035  -0.047  -0.369   0.365  -0.796  -0.297   0.356
        0.000   0.000  -0.000  -0.000  -0.000  -0.000  -0.000  -0.000  -0.000

  Average fulfillment of the sum rule on Im[epsilon] for q-point   29 :    108.66  [%]

================================================================================
== DATASET  2 ==================================================================
-   mpi_nproc: 128, omp_nthreads: -1 (-1 if OMP is not activated)


--- !DatasetInfo
iteration_state: {dtset: 2, }
dimensions: {natom: 2, nkpt: 29, mband: 480, nsppol: 1, nspinor: 1, nspden: 1, mpw: 1840, }
cutoff_energies: {ecut:  45.0, pawecutdg:  -1.0, }
electrons: {nelect:   1.60000000E+01, charge:   0.00000000E+00, occopt:   1.00000000E+00, tsmear:   1.00000000E-02, }
meta: {optdriver: 4, gwcalctyp: 0, }
...

 mkfilename: getwfk from: ../outdata_gs_DS2_WFK

 mkfilename : getscr/=0, take file _SCR from output of DATASET   1.

 Exchange-correlation functional for the present dataset will be:
  GGA: Perdew-Burke-Ernzerhof functional - ixc=11
 Citation for XC functional:
  J.P.Perdew, K.Burke, M.Ernzerhof, PRL 77, 3865 (1996)

 SIGMA: Calculation of the GW corrections 

 Based on a program developped by R.W. Godby, V. Olevano, G. Onida, and L. Reining.
 Incorporated in ABINIT by V. Olevano, G.-M. Rignanese, and M. Torrent.
.Using single precision arithmetic ; gwpc =  4

 Real(R)+Recip(G) space primitive vectors, cartesian coordinates (Bohr,Bohr^-1):
 R(1)=  0.0000000  3.9807081  3.9807081  G(1)= -0.1256058  0.1256058  0.1256058
 R(2)=  3.9807081  0.0000000  3.9807081  G(2)=  0.1256058 -0.1256058  0.1256058
 R(3)=  3.9807081  3.9807081  0.0000000  G(3)=  0.1256058  0.1256058 -0.1256058
 Unit cell volume ucvol=  1.2615690E+02 bohr^3
 Angles (23,13,12)=  6.00000000E+01  6.00000000E+01  6.00000000E+01 degrees
--------------------------------------------------------------------------------

 ==== K-mesh for the wavefunctions ====
 Number of points in the irreducible wedge :    29
 Reduced coordinates and weights : 

     1)     0.00000000E+00  0.00000000E+00  0.00000000E+00       0.00195
     2)     1.25000000E-01  0.00000000E+00  0.00000000E+00       0.01563
     3)     2.50000000E-01  0.00000000E+00  0.00000000E+00       0.01563
     4)     3.75000000E-01  0.00000000E+00  0.00000000E+00       0.01563
     5)     5.00000000E-01  0.00000000E+00  0.00000000E+00       0.00781
     6)     1.25000000E-01  1.25000000E-01  0.00000000E+00       0.01172
     7)     2.50000000E-01  1.25000000E-01  0.00000000E+00       0.04688
     8)     3.75000000E-01  1.25000000E-01  0.00000000E+00       0.04688
     9)     5.00000000E-01  1.25000000E-01  0.00000000E+00       0.04688
    10)    -3.75000000E-01  1.25000000E-01  0.00000000E+00       0.04688
    11)    -2.50000000E-01  1.25000000E-01  0.00000000E+00       0.04688
    12)    -1.25000000E-01  1.25000000E-01  0.00000000E+00       0.02344
    13)     2.50000000E-01  2.50000000E-01  0.00000000E+00       0.01172
    14)     3.75000000E-01  2.50000000E-01  0.00000000E+00       0.04688
    15)     5.00000000E-01  2.50000000E-01  0.00000000E+00       0.04688
    16)    -3.75000000E-01  2.50000000E-01  0.00000000E+00       0.04688
    17)    -2.50000000E-01  2.50000000E-01  0.00000000E+00       0.02344
    18)     3.75000000E-01  3.75000000E-01  0.00000000E+00       0.01172
    19)     5.00000000E-01  3.75000000E-01  0.00000000E+00       0.04688
    20)    -3.75000000E-01  3.75000000E-01  0.00000000E+00       0.02344
    21)     5.00000000E-01  5.00000000E-01  0.00000000E+00       0.00586
    22)     3.75000000E-01  2.50000000E-01  1.25000000E-01       0.04688
    23)     5.00000000E-01  2.50000000E-01  1.25000000E-01       0.09375
    24)    -3.75000000E-01  2.50000000E-01  1.25000000E-01       0.04688
    25)     5.00000000E-01  3.75000000E-01  1.25000000E-01       0.04688
    26)    -3.75000000E-01  3.75000000E-01  1.25000000E-01       0.09375
    27)    -2.50000000E-01  3.75000000E-01  1.25000000E-01       0.04688
    28)    -3.75000000E-01  5.00000000E-01  1.25000000E-01       0.02344
    29)    -2.50000000E-01  5.00000000E-01  2.50000000E-01       0.01172

 Together with 48 symmetry operations and time-reversal symmetry 
 yields   512 points in the full Brillouin Zone.


 ==== Q-mesh for screening function ====
 Number of points in the irreducible wedge :    29
 Reduced coordinates and weights : 

     1)     0.00000000E+00  0.00000000E+00  0.00000000E+00       0.00195
     2)     1.25000000E-01  0.00000000E+00  0.00000000E+00       0.01563
     3)     2.50000000E-01  0.00000000E+00  0.00000000E+00       0.01563
     4)     3.75000000E-01  0.00000000E+00  0.00000000E+00       0.01563
     5)     5.00000000E-01  0.00000000E+00  0.00000000E+00       0.00781
     6)     1.25000000E-01  1.25000000E-01  0.00000000E+00       0.01172
     7)     2.50000000E-01  1.25000000E-01  0.00000000E+00       0.04688
     8)     3.75000000E-01  1.25000000E-01  0.00000000E+00       0.04688
     9)     5.00000000E-01  1.25000000E-01  0.00000000E+00       0.04688
    10)    -3.75000000E-01  1.25000000E-01  0.00000000E+00       0.04688
    11)    -2.50000000E-01  1.25000000E-01  0.00000000E+00       0.04688
    12)    -1.25000000E-01  1.25000000E-01  0.00000000E+00       0.02344
    13)     2.50000000E-01  2.50000000E-01  0.00000000E+00       0.01172
    14)     3.75000000E-01  2.50000000E-01  0.00000000E+00       0.04688
    15)     5.00000000E-01  2.50000000E-01  0.00000000E+00       0.04688
    16)    -3.75000000E-01  2.50000000E-01  0.00000000E+00       0.04688
    17)    -2.50000000E-01  2.50000000E-01  0.00000000E+00       0.02344
    18)     3.75000000E-01  3.75000000E-01  0.00000000E+00       0.01172
    19)     5.00000000E-01  3.75000000E-01  0.00000000E+00       0.04688
    20)    -3.75000000E-01  3.75000000E-01  0.00000000E+00       0.02344
    21)     5.00000000E-01  5.00000000E-01  0.00000000E+00       0.00586
    22)     3.75000000E-01  2.50000000E-01  1.25000000E-01       0.04688
    23)     5.00000000E-01  2.50000000E-01  1.25000000E-01       0.09375
    24)    -3.75000000E-01  2.50000000E-01  1.25000000E-01       0.04688
    25)     5.00000000E-01  3.75000000E-01  1.25000000E-01       0.04688
    26)    -3.75000000E-01  3.75000000E-01  1.25000000E-01       0.09375
    27)    -2.50000000E-01  3.75000000E-01  1.25000000E-01       0.04688
    28)    -3.75000000E-01  5.00000000E-01  1.25000000E-01       0.02344
    29)    -2.50000000E-01  5.00000000E-01  2.50000000E-01       0.01172

 Together with 48 symmetry operations and time-reversal symmetry 
 yields   512 points in the full Brillouin Zone.


 setmesh: FFT mesh size selected  =    36x   36x   36
          total number of points  =        46656

 Number of electrons calculated from density =   16.0000; Expected =   16.0000
 average of density, n =  0.126826
 r_s =    1.2347
 omega_plasma =   34.3526 [eV]


 === KS Band Gaps ===
  >>>> For spin  1
   Minimum direct gap =   4.7611 [eV], located at k-point      :   0.0000  0.0000  0.0000
   Fundamental gap    =   4.7611 [eV], Top of valence bands at :   0.0000  0.0000  0.0000
                                       Bottom of conduction at :   0.0000  0.0000  0.0000
 SIGMA fundamental parameters:
 PLASMON POLE MODEL  1
 number of plane-waves for SigmaX                 1837
 number of plane-waves for SigmaC and W            259
 number of plane-waves for wavefunctions          1837
 number of bands                                   480
 number of independent spin polarizations            1
 number of spinorial components                      1
 number of k-points in IBZ                          29
 number of q-points in IBZ                          29
 number of symmetry operations                      48
 number of k-points in BZ                          512
 number of q-points in BZ                          512
 number of frequencies for dSigma/dE                 9
 frequency step for dSigma/dE [eV]                0.25
 number of omega for Sigma on real axis              0
 max omega for Sigma on real axis  [eV]           0.00
 zcut for avoiding poles [eV]                     0.10

 EPSILON^-1 parameters (SCR file):
 dimension of the eps^-1 matrix on file            259
 dimension of the eps^-1 matrix used               259
 number of plane-waves for wavefunctions          1837
 number of bands                                   480
 number of q-points in IBZ                          29
 number of frequencies                               2
 number of real frequencies                          1
 number of imag frequencies                          1

 matrix elements of self-energy operator (all in [eV])

 Perturbative Calculation

--- !SelfEnergy_ee
iteration_state: {dtset: 2, }
kpoint     : [   0.000,    0.000,    0.000, ]
spin       : 1
KS_gap     :    4.761
QP_gap     :    7.158
Delta_QP_KS:    2.397
data: !SigmaeeData |
     Band     E0 <VxcDFT>   SigX SigC(E0)      Z dSigC/dE  Sig(E)    E-E0       E
        1 -67.639 -34.369 -58.261  15.603   0.607  -0.648 -39.398  -5.029 -72.668
        2 -34.392 -32.315 -45.902   6.447   0.840  -0.191 -38.309  -5.995 -40.387
        3 -34.392 -32.315 -45.902   6.447   0.840  -0.191 -38.309  -5.995 -40.387
        4 -34.392 -32.315 -45.902   6.447   0.840  -0.191 -38.309  -5.995 -40.387
        5 -12.466 -18.530 -30.741   8.864   0.670  -0.492 -20.774  -2.244 -14.710
        6   4.719 -20.115 -25.576   3.399   0.805  -0.242 -21.776  -1.661   3.057
        7   4.719 -20.115 -25.576   3.399   0.805  -0.242 -21.776  -1.661   3.057
        8   4.719 -20.115 -25.576   3.399   0.805  -0.242 -21.776  -1.661   3.057
        9   9.480 -13.473  -8.943  -3.668   0.854  -0.171 -12.737   0.736  10.216
       10  20.674  -9.582  -3.693  -4.727   0.865  -0.156  -8.577   1.005  21.679
       11  20.674  -9.582  -3.693  -4.727   0.865  -0.156  -8.577   1.005  21.679
       12  20.674  -9.582  -3.693  -4.727   0.865  -0.156  -8.577   1.005  21.679
...


--- !SelfEnergy_ee
iteration_state: {dtset: 2, }
kpoint     : [   0.500,    0.500,    0.000, ]
spin       : 1
KS_gap     :   10.559
QP_gap     :   13.170
Delta_QP_KS:    2.611
data: !SigmaeeData |
     Band     E0 <VxcDFT>   SigX SigC(E0)      Z dSigC/dE  Sig(E)    E-E0       E
        1 -67.628 -34.388 -58.281  15.757   0.542  -0.845 -38.799  -4.411 -72.038
        2 -34.464 -32.169 -45.768   6.400   0.825  -0.212 -38.109  -5.940 -40.405
        3 -34.421 -32.260 -45.851   6.437   0.845  -0.183 -38.306  -6.046 -40.466
        4 -34.421 -32.260 -45.851   6.437   0.845  -0.183 -38.306  -6.046 -40.466
        5 -10.927 -20.044 -32.071   8.734   0.686  -0.457 -22.305  -2.260 -13.187
        6   0.683 -16.124 -22.705   3.840   0.809  -0.237 -18.341  -2.217  -1.534
        7   3.386 -18.768 -24.699   3.594   0.805  -0.243 -20.649  -1.880   1.505
        8   3.386 -18.768 -24.699   3.594   0.805  -0.243 -20.649  -1.880   1.505
        9  13.945  -8.873  -3.885  -4.152   0.873  -0.146  -8.143   0.730  14.675
       10  14.724 -11.999  -6.389  -4.454   0.866  -0.155 -10.997   1.002  15.726
       11  17.801 -16.121  -8.951  -5.106   0.819  -0.222 -14.432   1.690  19.491
       12  23.694 -14.397  -6.410  -5.893   0.816  -0.226 -12.688   1.709  25.403
       13  23.694 -14.397  -6.410  -5.893   0.816  -0.226 -12.688   1.709  25.403
...


== END DATASET(S) ==============================================================
================================================================================
  
 -outvars: echo values of variables after computation  --------
            acell      7.9614161978E+00  7.9614161978E+00  7.9614161978E+00 Bohr
              amu      2.43050000E+01  1.59994000E+01
             bdgw           1      12       1      12
           diemac      1.20000000E+01
             ecut      4.50000000E+01 Hartree
          ecuteps      1.20000000E+01 Hartree
         ecutsigx      4.50000000E+01 Hartree
          ecutwfn      4.50000000E+01 Hartree
           etotal1     0.0000000000E+00
           etotal2     0.0000000000E+00
            fcart1     0.0000000000E+00  0.0000000000E+00  0.0000000000E+00
                       0.0000000000E+00  0.0000000000E+00  0.0000000000E+00
            fcart2     0.0000000000E+00  0.0000000000E+00  0.0000000000E+00
                       0.0000000000E+00  0.0000000000E+00  0.0000000000E+00
-          fftalg         312
           getscr1          0
           getscr2         -1
           istwfk        1    0    0    0    1    0    0    0    0    0
                         0    0    0    0    0    0    0    0    0    0
                         1    0    0    0    0    0    0    0    0
              ixc          11
           jdtset        1    2
              kpt      0.00000000E+00  0.00000000E+00  0.00000000E+00
                       1.25000000E-01  0.00000000E+00  0.00000000E+00
                       2.50000000E-01  0.00000000E+00  0.00000000E+00
                       3.75000000E-01  0.00000000E+00  0.00000000E+00
                       5.00000000E-01  0.00000000E+00  0.00000000E+00
                       1.25000000E-01  1.25000000E-01  0.00000000E+00
                       2.50000000E-01  1.25000000E-01  0.00000000E+00
                       3.75000000E-01  1.25000000E-01  0.00000000E+00
                       5.00000000E-01  1.25000000E-01  0.00000000E+00
                      -3.75000000E-01  1.25000000E-01  0.00000000E+00
                      -2.50000000E-01  1.25000000E-01  0.00000000E+00
                      -1.25000000E-01  1.25000000E-01  0.00000000E+00
                       2.50000000E-01  2.50000000E-01  0.00000000E+00
                       3.75000000E-01  2.50000000E-01  0.00000000E+00
                       5.00000000E-01  2.50000000E-01  0.00000000E+00
                      -3.75000000E-01  2.50000000E-01  0.00000000E+00
                      -2.50000000E-01  2.50000000E-01  0.00000000E+00
                       3.75000000E-01  3.75000000E-01  0.00000000E+00
                       5.00000000E-01  3.75000000E-01  0.00000000E+00
                      -3.75000000E-01  3.75000000E-01  0.00000000E+00
                       5.00000000E-01  5.00000000E-01  0.00000000E+00
                       3.75000000E-01  2.50000000E-01  1.25000000E-01
                       5.00000000E-01  2.50000000E-01  1.25000000E-01
                      -3.75000000E-01  2.50000000E-01  1.25000000E-01
                       5.00000000E-01  3.75000000E-01  1.25000000E-01
                      -3.75000000E-01  3.75000000E-01  1.25000000E-01
                      -2.50000000E-01  3.75000000E-01  1.25000000E-01
                      -3.75000000E-01  5.00000000E-01  1.25000000E-01
                      -2.50000000E-01  5.00000000E-01  2.50000000E-01
            kptgw      0.00000000E+00  0.00000000E+00  0.00000000E+00
                       5.00000000E-01  5.00000000E-01  0.00000000E+00
         kptrlatt        8    0    0      0    8    0      0    0    8
          kptrlen      4.50365711E+01
P           mkmem           1
            natom           2
            nband         480
           ndtset           2
            ngfft          36      36      36
             nkpt          29
           nkptgw           2
           npweps         259
          npwsigx        1837
           npwwfn        1837
            nstep          50
             nsym          48
           ntypat           2
              occ      2.000000  2.000000  2.000000  2.000000  2.000000  2.000000
                       2.000000  2.000000  0.000000  0.000000  0.000000  0.000000
                       0.000000  0.000000  0.000000  0.000000  0.000000  0.000000
                       0.000000  0.000000  0.000000  0.000000  0.000000  0.000000
                       0.000000  0.000000  0.000000  0.000000  0.000000  0.000000
                       0.000000  0.000000  0.000000  0.000000  0.000000  0.000000
                       0.000000  0.000000  0.000000  0.000000  0.000000  0.000000
                       0.000000  0.000000  0.000000  0.000000  0.000000  0.000000
                       0.000000  0.000000  0.000000  0.000000  0.000000  0.000000
                       0.000000  0.000000  0.000000  0.000000  0.000000  0.000000
                       0.000000  0.000000  0.000000  0.000000  0.000000  0.000000
                       0.000000  0.000000  0.000000  0.000000  0.000000  0.000000
                       0.000000  0.000000  0.000000  0.000000  0.000000  0.000000
                       0.000000  0.000000  0.000000  0.000000  0.000000  0.000000
                       0.000000  0.000000  0.000000  0.000000  0.000000  0.000000
                       0.000000  0.000000  0.000000  0.000000  0.000000  0.000000
                       0.000000  0.000000  0.000000  0.000000  0.000000  0.000000
                       0.000000  0.000000  0.000000  0.000000  0.000000  0.000000
                       0.000000  0.000000  0.000000  0.000000  0.000000  0.000000
                       0.000000  0.000000  0.000000  0.000000  0.000000  0.000000
                       0.000000  0.000000  0.000000  0.000000  0.000000  0.000000
                       0.000000  0.000000  0.000000  0.000000  0.000000  0.000000
                       0.000000  0.000000  0.000000  0.000000  0.000000  0.000000
                       0.000000  0.000000  0.000000  0.000000  0.000000  0.000000
                       0.000000  0.000000  0.000000  0.000000  0.000000  0.000000
                       0.000000  0.000000  0.000000  0.000000  0.000000  0.000000
                       0.000000  0.000000  0.000000  0.000000  0.000000  0.000000
                       0.000000  0.000000  0.000000  0.000000  0.000000  0.000000
                       0.000000  0.000000  0.000000  0.000000  0.000000  0.000000
                       0.000000  0.000000  0.000000  0.000000  0.000000  0.000000
                       0.000000  0.000000  0.000000  0.000000  0.000000  0.000000
                       0.000000  0.000000  0.000000  0.000000  0.000000  0.000000
                       0.000000  0.000000  0.000000  0.000000  0.000000  0.000000
                       0.000000  0.000000  0.000000  0.000000  0.000000  0.000000
[...]
           symrel      1  0  0   0  1  0   0  0  1      -1  0  0   0 -1  0   0  0 -1
                       0 -1  1   0 -1  0   1 -1  0       0  1 -1   0  1  0  -1  1  0
                      -1  0  0  -1  0  1  -1  1  0       1  0  0   1  0 -1   1 -1  0
                       0  1 -1   1  0 -1   0  0 -1       0 -1  1  -1  0  1   0  0  1
                      -1  0  0  -1  1  0  -1  0  1       1  0  0   1 -1  0   1  0 -1
                       0 -1  1   1 -1  0   0 -1  0       0  1 -1  -1  1  0   0  1  0
                       1  0  0   0  0  1   0  1  0      -1  0  0   0  0 -1   0 -1  0
                       0  1 -1   0  0 -1   1  0 -1       0 -1  1   0  0  1  -1  0  1
                      -1  0  1  -1  1  0  -1  0  0       1  0 -1   1 -1  0   1  0  0
                       0 -1  0   1 -1  0   0 -1  1       0  1  0  -1  1  0   0  1 -1
                       1  0 -1   0  0 -1   0  1 -1      -1  0  1   0  0  1   0 -1  1
                       0  1  0   0  0  1   1  0  0       0 -1  0   0  0 -1  -1  0  0
                       1  0 -1   0  1 -1   0  0 -1      -1  0  1   0 -1  1   0  0  1
                       0 -1  0   0 -1  1   1 -1  0       0  1  0   0  1 -1  -1  1  0
                      -1  0  1  -1  0  0  -1  1  0       1  0 -1   1  0  0   1 -1  0
                       0  1  0   1  0  0   0  0  1       0 -1  0  -1  0  0   0  0 -1
                       0  0 -1   0  1 -1   1  0 -1       0  0  1   0 -1  1  -1  0  1
                       1 -1  0   0 -1  1   0 -1  0      -1  1  0   0  1 -1   0  1  0
                       0  0  1   1  0  0   0  1  0       0  0 -1  -1  0  0   0 -1  0
                      -1  1  0  -1  0  0  -1  0  1       1 -1  0   1  0  0   1  0 -1
                       0  0  1   0  1  0   1  0  0       0  0 -1   0 -1  0  -1  0  0
                       1 -1  0   0 -1  0   0 -1  1      -1  1  0   0  1  0   0  1 -1
                       0  0 -1   1  0 -1   0  1 -1       0  0  1  -1  0  1   0 -1  1
                      -1  1  0  -1  0  1  -1  0  0       1 -1  0   1  0 -1   1  0  0
           timopt          -1
            typat      1  2
              wtk        0.00195    0.01563    0.01563    0.01563    0.00781    0.01172
                         0.04688    0.04688    0.04688    0.04688    0.04688    0.02344
                         0.01172    0.04688    0.04688    0.04688    0.02344    0.01172
                         0.04688    0.02344    0.00586    0.04688    0.09375    0.04688
                         0.04688    0.09375    0.04688    0.02344    0.01172
           xangst      0.0000000000E+00  0.0000000000E+00  0.0000000000E+00
                       2.1065000000E+00  2.1065000000E+00  2.1065000000E+00
            xcart      0.0000000000E+00  0.0000000000E+00  0.0000000000E+00
                       3.9807080989E+00  3.9807080989E+00  3.9807080989E+00
             xred      0.0000000000E+00  0.0000000000E+00  0.0000000000E+00
                       5.0000000000E-01  5.0000000000E-01  5.0000000000E-01
            znucl       12.00000    8.00000

================================================================================

 Test the timer : 
  a combined call timab(*,1,tsec) + timab(*,2,tsec) is 
- CPU time =    6.0210E-07 sec,    Wall time =    6.0220E-07 sec

- Total cpu        time (s,m,h):      11592.5      193.21      3.220
- Total wall clock time (s,m,h):      11601.4      193.36      3.223
-
- For major independent code sections, cpu and wall times (sec),
-  as well as % of the time and number of calls for node 0
-
-<BEGIN_TIMER mpi_nprocs = 128, omp_nthreads = 1, mpi_rank = 0>
- cpu_time =           90.3, wall_time =           90.7
-
- routine                            cpu     %          wall     %      number of calls Gflops    Speedup Efficacity
-                                                                        (-1=no count)
- sigma/=fourdp                    20.520   0.2        20.624   0.2              1      -1.00        0.99       0.99
- wfd_read_wfk                      1.891   0.0         1.906   0.0              2      -1.00        0.99       0.99
- pspini                            0.512   0.0         0.514   0.0              2      -1.00        1.00       1.00
- abinit(2)                         0.151   0.0         0.155   0.0              1      -1.00        0.97       0.97
- timing timab                      0.117   0.0         0.117   0.0             14      -1.00        1.00       1.00
- invars2                           0.051   0.0         0.051   0.0              2      -1.00        1.00       1.00
- fourdp                            0.035   0.0         0.035   0.0             34      -1.00        1.00       1.00
- xc:pot/=fourdp                    0.032   0.0         0.032   0.0              3      -1.00        1.00       1.00
- ewald                             0.021   0.0         0.021   0.0              2      -1.00        1.00       1.00
- mkffnl                            0.013   0.0         0.013   0.0             29      -1.00        1.01       1.01
- others (145)                      0.014   0.0         0.014   0.0             -1      -1.00        1.00       1.00
-<END_TIMER>
-
- subtotal                         23.358   0.2        23.481   0.2                                  0.99       0.99

- For major independent code sections, cpu and wall times (sec),
- as well as % of the total time and number of calls 

-<BEGIN_TIMER mpi_nprocs = 128, omp_nthreads = 1, mpi_rank = world>
- cpu_time =       11592.5, wall_time =       11601.4
-
- routine                            cpu     %          wall     %      number of calls Gflops    Speedup Efficacity
-                                                                        (-1=no count)
- sigma/=fourdp                  2612.154  22.5      2612.916  22.5            128      -1.00        1.00       1.00
- wfd_read_wfk                    243.737   2.1       243.840   2.1            256      -1.00        1.00       1.00
- pspini                           65.163   0.6        65.186   0.6            256      -1.00        1.00       1.00
- timing timab                     14.668   0.1        14.669   0.1           1792      -1.00        1.00       1.00
- abinit(2)                         8.303   0.1         8.469   0.1            128      -1.00        0.98       0.98
- invars2                           6.378   0.1         6.380   0.1            256      -1.00        1.00       1.00
- fourdp                            4.369   0.0         4.374   0.0           4352      -1.00        1.00       1.00
- xc:pot/=fourdp                    3.958   0.0         3.964   0.0            384      -1.00        1.00       1.00
- ewald                             2.609   0.0         2.609   0.0            256      -1.00        1.00       1.00
- mkffnl                            1.344   0.0         1.339   0.0           3712      -1.00        1.00       1.00
- mkcore                            0.903   0.0         0.903   0.0            256      -1.00        1.00       1.00
- kpgsph                            0.572   0.0         0.571   0.0          38202      -1.00        1.00       1.00
- symrhg(no FFT)                    0.263   0.0         0.263   0.0            256      -1.00        1.00       1.00
- others (142)                      0.000   0.0         0.000   0.0             -1      -1.00        0.00       0.00
-<END_TIMER>

- subtotal                       2964.420  25.6      2965.484  25.6                                  1.00       1.00

 Partitioning of abinit
- abinit                        11592.515 100.0     11601.352 100.0            128                   1.00       1.00
 
- abinit(1)                        19.950   0.2        22.199   0.2            128                   0.90       0.90
- abinit(2)                         8.303   0.1         8.469   0.1            128                   0.98       0.98
- indefo+macroin+invars2m           6.735   0.1         6.738   0.1            128                   1.00       1.00
- abinit(4)                        30.561   0.3        32.410   0.3            128                   0.94       0.94
- abinit(5)                         4.426   0.0         4.465   0.0            128                   0.99       0.99
- driver                        11536.829  99.5     11541.853  99.5            128                   1.00       1.00
- timing timab                     14.668   0.1        14.669   0.1           1792                   1.00       1.00

- subtotal                      11592.515 100.0     11601.352 100.0                                  1.00       1.00

 Partitioning of driver
- driver                        11536.829  99.5     11541.853  99.5            128                   1.00       1.00
 
- screening                      8895.830  76.7      8899.980  76.7            128                   1.00       1.00
- sigma                          2612.250  22.5      2613.012  22.5            128                   1.00       1.00
- (other)                          27.044   0.2        27.073   0.2             -1                   1.00       1.00

- subtotal                      11536.829  99.5     11541.853  99.5                                  1.00       1.00

 Partitioning of screening
- screening                      8895.830  76.7      8899.980  76.7            128                   1.00       1.00
 
- screening(init1)                176.335   1.5       176.480   1.5            128                   1.00       1.00
- screening(wfs)                  162.117   1.4       162.226   1.4            128                   1.00       1.00
- screening(1)                      7.581   0.1         7.583   0.1            128                   1.00       1.00
- screening(density)               18.158   0.2        20.399   0.2            128                   0.89       0.89
- screening(2)                      4.704   0.0         4.708   0.0            128                   1.00       1.00
- screening(cchi0q0)              152.946   1.3       153.078   1.3            128                   1.00       1.00
- screening(cchi0)               8344.507  72.0      8345.919  71.9           3584                   1.00       1.00
- screening(q-loop,end)            28.678   0.2        28.770   0.2           3712                   1.00       1.00

- subtotal                       8895.190  76.7      8899.365  76.7                                  1.00       1.00

 Partitioning of sigma
- sigma                          2612.250  22.5      2613.012  22.5            128                   1.00       1.00
 
- sigma(Init1)                      4.916   0.0         4.918   0.0            256                   1.00       1.00
- setup_sigma                      83.371   0.7        83.476   0.7            128                   1.00       1.00
- sigma(rdkss)                     87.892   0.8        87.914   0.8            128                   1.00       1.00
- sigma(Init2)                      2.455   0.0         2.458   0.0            128                   1.00       1.00
- sigma(make_vhxc)                 23.234   0.2        23.238   0.2            128                   1.00       1.00
- sigma(vHxc_me)                    3.324   0.0         3.379   0.0            128                   0.98       0.98
- sigma(hqp_init)                  24.722   0.2        24.727   0.2            128                   1.00       1.00
- sigma(getW)                      17.316   0.1        17.322   0.1            128                   1.00       1.00
- sigma(calc_sigx_me)             157.533   1.4       157.596   1.4            128                   1.00       1.00
- sigma(calc_sigc_me)            2205.197  19.0      2205.512  19.0            256                   1.00       1.00

- subtotal                       2610.302  22.5      2610.975  22.5                                  1.00       1.00

 Partitioning of calc_sigc_me
- calc_sigc_me                   2205.197  19.0      2205.512  19.0            256                   1.00       1.00
 
- calc_sigc_me(Init)               23.321   0.2        23.344   0.2            256                   1.00       1.00
- calc_sigc_me(Init q)              2.704   0.0         2.711   0.0          11264                   1.00       1.00
- calc_sigc_me(loop)             2027.789  17.5      2028.011  17.5          11264                   1.00       1.00
- calc_sigc_me(xmpi_sum)          150.743   1.3       150.791   1.3            256                   1.00       1.00

- subtotal                       2205.139  19.0      2205.463  19.0                                  1.00       1.00

 Partitioning of  fourdp (upwards partitioning)
- fourdp                            4.369   0.0         4.374   0.0           4352                   1.00       1.00
 
- fourdp%(other)                    4.194   0.0         4.199   0.0           4096                   1.00       1.00

- subtotal                          4.369   0.0         4.374   0.0                                  1.00       1.00
-
-Synchronisation (=leave_test) and MPI calls 
- communic.MPI                      1.412   0.0         1.446   0.0            128                   0.98       0.98
-
- subtotal                          0.000   0.0         0.000   0.0                                  0.00       0.00

 Additional information
- timana(1)                         0.098   0.0         0.100   0.0            128                   0.99       0.99
- total timab                      15.408   0.1        15.410   0.1       26163578                   1.00       1.00
- xc:fourdp                         2.241   0.0         2.239   0.0           3072                   1.00       1.00
- calc_sigc_me(1)             3437446.473******  88912875.805******          42240                   0.04       0.04
- calc_sigc_me(rho_tw_g)           73.019   0.6        73.056   0.6          42240                   1.00       1.00
- calc_sigc_me(2)                1951.390  16.8      1951.895  16.8         535200                   1.00       1.00
- calc_sigc_me(sigma_me)            0.779   0.0         0.782   0.0         535200                   1.00       1.00
- cchi0                          8344.398  72.0      8345.824  71.9           3584                   1.00       1.00

 timana : in multi dataset mode, the more detailed analysis is not done.

================================================================================

 Suggested references for the acknowledgment of ABINIT usage.

 The users of ABINIT have little formal obligations with respect to the ABINIT group
 (those specified in the GNU General Public License, http://www.gnu.org/copyleft/gpl.txt).
 However, it is common practice in the scientific literature,
 to acknowledge the efforts of people that have made the research possible.
 In this spirit, please find below suggested citations of work written by ABINIT developers,
 corresponding to implementations inside of ABINIT that you have used in the present run.
 Note also that it will be of great value to readers of publications presenting these results,
 to read papers enabling them to understand the theoretical formalism and details
 of the ABINIT implementation.
 For information on why they are suggested, see also https://docs.abinit.org/theory/acknowledgments.
-
- [1] The Abinit project: Impact, environment and recent developments.
- Computer Phys. Comm. 248, 107042 (2020).
- X.Gonze, B. Amadon, G. Antonius, F.Arnardi, L.Baguet, J.-M.Beuken,
- J.Bieder, F.Bottin, J.Bouchet, E.Bousquet, N.Brouwer, F.Bruneval,
- G.Brunin, T.Cavignac, J.-B. Charraud, Wei Chen, M.Cote, S.Cottenier,
- J.Denier, G.Geneste, Ph.Ghosez, M.Giantomassi, Y.Gillet, O.Gingras,
- D.R.Hamann, G.Hautier, Xu He, N.Helbig, N.Holzwarth, Y.Jia, F.Jollet,
- W.Lafargue-Dit-Hauret, K.Lejaeghere, M.A.L.Marques, A.Martin, C.Martins,
- H.P.C. Miranda, F.Naccarato, K. Persson, G.Petretto, V.Planes, Y.Pouillon,
- S.Prokhorenko, F.Ricci, G.-M.Rignanese, A.H.Romero, M.M.Schmitt, M.Torrent,
- M.J.van Setten, B.Van Troeye, M.J.Verstraete, G.Zerah and J.W.Zwanzig
- Comment: the fifth generic paper describing the ABINIT project.
- Note that a version of this paper, that is not formatted for Computer Phys. Comm. 
- is available at https://www.abinit.org/sites/default/files/ABINIT20.pdf .
- The licence allows the authors to put it on the Web.
- DOI and bibtex: see https://docs.abinit.org/theory/bibliography/#gonze2020
-
- [2] Optimized norm-conserving Vanderbilt pseudopotentials.
- D.R. Hamann, Phys. Rev. B 88, 085117 (2013).
- Comment: Some pseudopotential generated using the ONCVPSP code were used.
- DOI and bibtex: see https://docs.abinit.org/theory/bibliography/#hamann2013
-
- [3] ABINIT: Overview, and focus on selected capabilities
- J. Chem. Phys. 152, 124102 (2020).
- A. Romero, D.C. Allan, B. Amadon, G. Antonius, T. Applencourt, L.Baguet,
- J.Bieder, F.Bottin, J.Bouchet, E.Bousquet, F.Bruneval,
- G.Brunin, D.Caliste, M.Cote,
- J.Denier, C. Dreyer, Ph.Ghosez, M.Giantomassi, Y.Gillet, O.Gingras,
- D.R.Hamann, G.Hautier, F.Jollet, G. Jomard,
- A.Martin, 
- H.P.C. Miranda, F.Naccarato, G.Petretto, N.A. Pike, V.Planes,
- S.Prokhorenko, T. Rangel, F.Ricci, G.-M.Rignanese, M.Royo, M.Stengel, M.Torrent,
- M.J.van Setten, B.Van Troeye, M.J.Verstraete, J.Wiktor, J.W.Zwanziger, and X.Gonze.
- Comment: a global overview of ABINIT, with focus on selected capabilities .
- Note that a version of this paper, that is not formatted for J. Chem. Phys 
- is available at https://www.abinit.org/sites/default/files/ABINIT20_JPC.pdf .
- The licence allows the authors to put it on the Web.
- DOI and bibtex: see https://docs.abinit.org/theory/bibliography/#romero2020
-
- [4] Recent developments in the ABINIT software package.
- Computer Phys. Comm. 205, 106 (2016).
- X.Gonze, F.Jollet, F.Abreu Araujo, D.Adams, B.Amadon, T.Applencourt,
- C.Audouze, J.-M.Beuken, J.Bieder, A.Bokhanchuk, E.Bousquet, F.Bruneval
- D.Caliste, M.Cote, F.Dahm, F.Da Pieve, M.Delaveau, M.Di Gennaro,
- B.Dorado, C.Espejo, G.Geneste, L.Genovese, A.Gerossier, M.Giantomassi,
- Y.Gillet, D.R.Hamann, L.He, G.Jomard, J.Laflamme Janssen, S.Le Roux,
- A.Levitt, A.Lherbier, F.Liu, I.Lukacevic, A.Martin, C.Martins,
- M.J.T.Oliveira, S.Ponce, Y.Pouillon, T.Rangel, G.-M.Rignanese,
- A.H.Romero, B.Rousseau, O.Rubel, A.A.Shukri, M.Stankovski, M.Torrent,
- M.J.Van Setten, B.Van Troeye, M.J.Verstraete, D.Waroquier, J.Wiktor,
- B.Xu, A.Zhou, J.W.Zwanziger.
- Comment: the fourth generic paper describing the ABINIT project.
- Note that a version of this paper, that is not formatted for Computer Phys. Comm. 
- is available at https://www.abinit.org/sites/default/files/ABINIT16.pdf .
- The licence allows the authors to put it on the Web.
- DOI and bibtex: see https://docs.abinit.org/theory/bibliography/#gonze2016
-
- And optionally:
-
- [5] ABINIT: First-principles approach of materials and nanosystem properties.
- Computer Phys. Comm. 180, 2582-2615 (2009).
- X. Gonze, B. Amadon, P.-M. Anglade, J.-M. Beuken, F. Bottin, P. Boulanger, F. Bruneval,
- D. Caliste, R. Caracas, M. Cote, T. Deutsch, L. Genovese, Ph. Ghosez, M. Giantomassi
- S. Goedecker, D.R. Hamann, P. Hermet, F. Jollet, G. Jomard, S. Leroux, M. Mancini, S. Mazevet,
- M.J.T. Oliveira, G. Onida, Y. Pouillon, T. Rangel, G.-M. Rignanese, D. Sangalli, R. Shaltaf,
- M. Torrent, M.J. Verstraete, G. Zerah, J.W. Zwanziger
- Comment: the third generic paper describing the ABINIT project.
- Note that a version of this paper, that is not formatted for Computer Phys. Comm. 
- is available at https://www.abinit.org/sites/default/files/ABINIT_CPC_v10.pdf .
- The licence allows the authors to put it on the Web.
- DOI and bibtex: see https://docs.abinit.org/theory/bibliography/#gonze2009
-
- Proc.   0 individual time (sec): cpu=         90.3  wall=         90.7

================================================================================

 Calculation completed.
.Delivered   0 WARNINGs and   0 COMMENTs to log file.
+Overall time at end (sec) : cpu=      11597.5  wall=      11606.3
