  ABINIT 9.9.2
  
-instrng: 27 lines of input have been read from file ../globals

-instrng: 44 lines of input have been read from file run.abi


--- !COMMENT
src_file: m_dtfil.F90
src_line: 1441
message: |
    Output file: run.abo already exists.
...


--- !COMMENT
src_file: m_dtfil.F90
src_line: 1465
message: |
    Renaming old: run.abo to: run.abo0001
...


.Version 9.9.2 of ABINIT 
.(MPI version, prepared for a x86_64_linux_gnu11.2 computer) 

.Copyright (C) 1998-2022 ABINIT group . 
 ABINIT comes with ABSOLUTELY NO WARRANTY.
 It is free software, and you are welcome to redistribute it
 under certain conditions (GNU General Public License,
 see ~abinit/COPYING or http://www.gnu.org/copyleft/gpl.txt).

 ABINIT is a project of the Universite Catholique de Louvain,
 Corning Inc. and other collaborators, see ~abinit/doc/developers/contributors.txt .
 Please read https://docs.abinit.org/theory/acknowledgments for suggested
 acknowledgments of the ABINIT effort.
 For more information, see https://www.abinit.org .

.Starting date : Fri 17 Feb 2023.
- ( at 10h33 )
  

 ++++++++++++++++++++++++++++++++++++++++++++++++++++++++++++++++++++++++++++++

 === Build Information === 
  Version       : 9.9.2
  Build target  : x86_64_linux_gnu11.2
  Build date    : 20230216

 === Compiler Suite === 
  C compiler       : gnu11.2
  C++ compiler     : gnu11.2
  Fortran compiler : gnu11.2
  CFLAGS           : -g -O2
  CXXFLAGS         : -g -O2 -mtune=native -march=native
  FCFLAGS          : -g -O2 -fbacktrace -ffree-line-length-none -fallow-argument-mismatc ...
  FC_LDFLAGS       : 

 === Optimizations === 
  Debug level        : basic
  Optimization level : standard
  Architecture       : amd_epyc

 === Multicore === 
  Parallel build : /opt/cray/pe/mpich/8.1.12/ofi/gnu/9.1
  Parallel I/O   : 
  openMP support : no
  GPU support    : 

 === Connectors / Fallbacks === 
  LINALG flavor  : netlib
  FFT flavor     : fftw3
  HDF5           : yes
  NetCDF         : yes
  NetCDF Fortran : yes
  LibXC          : yes
  Wannier90      : no

 === Experimental features === 
  Exports             : 
  GW double-precision : no

 ++++++++++++++++++++++++++++++++++++++++++++++++++++++++++++++++++++++++++++++


 ++++++++++++++++++++++++++++++++++++++++++++++++++++++++++++++++++++++++++++++
 Default optimizations:
   --- None ---


 ++++++++++++++++++++++++++++++++++++++++++++++++++++++++++++++++++++++++++++++


 ++++++++++++++++++++++++++++++++++++++++++++++++++++++++++++++++++++++++++++++
 CPP options activated during the build:

                    CC_GNU                   CXX_GNU                    FC_GNU
 
 HAVE_FC_ALLOCATABLE_DT...             HAVE_FC_ASYNC         HAVE_FC_BACKTRACE
 
  HAVE_FC_COMMAND_ARGUMENT      HAVE_FC_COMMAND_LINE        HAVE_FC_CONTIGUOUS
 
           HAVE_FC_CPUTIME              HAVE_FC_EXIT             HAVE_FC_FLUSH
 
             HAVE_FC_GAMMA            HAVE_FC_GETENV   HAVE_FC_IEEE_ARITHMETIC
 
   HAVE_FC_IEEE_EXCEPTIONS          HAVE_FC_INT_QUAD             HAVE_FC_IOMSG
 
     HAVE_FC_ISO_C_BINDING  HAVE_FC_ISO_FORTRAN_2008        HAVE_FC_LONG_LINES
 
        HAVE_FC_MOVE_ALLOC  HAVE_FC_ON_THE_FLY_SHAPE           HAVE_FC_PRIVATE
 
         HAVE_FC_PROTECTED           HAVE_FC_SHIFTLR         HAVE_FC_STREAM_IO
 
            HAVE_FC_SYSTEM                HAVE_FFTW3            HAVE_FFTW3_MPI
 
          HAVE_FORTRAN2003                 HAVE_HDF5        HAVE_LIBPAW_ABINIT
 
      HAVE_LIBTETRA_ABINIT                HAVE_LIBXC        HAVE_LINALG_GEMM3M
 
     HAVE_LINALG_SCALAPACK                  HAVE_MPI                 HAVE_MPI2
 
       HAVE_MPI_IALLGATHER       HAVE_MPI_IALLREDUCE        HAVE_MPI_IALLTOALL
 
       HAVE_MPI_IALLTOALLV           HAVE_MPI_IBCAST         HAVE_MPI_IGATHERV
 
        HAVE_MPI_INTEGER16               HAVE_MPI_IO HAVE_MPI_TYPE_CREATE_S...
 
               HAVE_NETCDF       HAVE_NETCDF_FORTRAN             HAVE_OS_LINUX
 
         HAVE_TIMER_ABINIT                                                      
 ++++++++++++++++++++++++++++++++++++++++++++++++++++++++++++++++++++++++++++++

- input  file    -> run.abi
- output file    -> run.abo
- root for input  files -> ../indata_ac
- root for output files -> outdata_ac

-instrng: 27 lines of input have been read from file ../globals

-instrng: 44 lines of input have been read from file run.abi

 For atom type 1, psp file is ../Mg.psp8
 For atom type 2, psp file is ../O.psp8
  read the values zionpsp= 10.0 , pspcod=   8 , lmax=   1
  read the values zionpsp=  6.0 , pspcod=   8 , lmax=   2

 inpspheads: deduce mpsang = 3, n1xccc = 2501.

======================================================= 
 invars1m : enter jdtset= 1

 symlatt: the Bravais lattice is cF (face-centered cubic)
  xred   is defined in input file
 ingeo: takes atomic coordinates from input array xred

--- !COMMENT
src_file: m_ingeo.F90
src_line: 890
message: |
    The tolerance on symmetries =   1.000E-05 is bigger than 1.0e-8.
    In order to avoid spurious effects, the atomic coordinates have been
    symmetrized before storing them in the dataset internal variable.
    So, do not be surprised by the fact that your input variables (xcart, xred, ...)
    do not correspond exactly to the ones echoed by ABINIT, the latter being used to do the calculations.
    This is not a problem per se.
    Still, in order to avoid this symmetrization (e.g. for specific debugging/development), decrease tolsym to 1.0e-8 or lower,
    or (much preferred) use input primitive vectors that are accurate to better than 1.0e-8.
    This message will only be printed once, even if there are other datasets where tolsym is bigger than 1.0e-8.
...


 symlatt: the Bravais lattice is cF (face-centered cubic)

 symlatt: the Bravais lattice is cF (face-centered cubic)
 symspgr: spgroup= 225  Fm -3 m   (=Oh^5)
 symspgr: optical characteristics = isotropic

======================================================= 
 invars1m : enter jdtset= 2

 symlatt: the Bravais lattice is cF (face-centered cubic)
  xred   is defined in input file
 ingeo: takes atomic coordinates from input array xred

 symlatt: the Bravais lattice is cF (face-centered cubic)

 symlatt: the Bravais lattice is cF (face-centered cubic)
 symspgr: spgroup= 225  Fm -3 m   (=Oh^5)
 symspgr: optical characteristics = isotropic

--- !WARNING
src_file: m_mpinfo.F90
src_line: 2337
message: |
    nproc_spkpt= 128 >= nkpt= 29* nsppol= 1
    The number of processors is larger than nkpt*nsppol. This is a WASTE.
     Ignore this warning if this is not a GS run
...

 For input ecut=  4.500000E+01 best grid ngfft=      36      36      36
       max ecut=  5.045034E+01

 ==== FFT mesh ====
  FFT mesh divisions ........................    36   36   36
  Augmented FFT divisions ...................    37   37   36
  FFT algorithm .............................   312
  FFT cache size ............................    16
 getmpw: optimal value of mpw= 1840

--- !WARNING
src_file: m_mpinfo.F90
src_line: 2337
message: |
    nproc_spkpt= 128 >= nkpt= 29* nsppol= 1
    The number of processors is larger than nkpt*nsppol. This is a WASTE.
     Ignore this warning if this is not a GS run
...

 For input ecut=  4.500000E+01 best grid ngfft=      36      36      36
       max ecut=  5.045034E+01

 ==== FFT mesh ====
  FFT mesh divisions ........................    36   36   36
  Augmented FFT divisions ...................    37   37   36
  FFT algorithm .............................   312
  FFT cache size ............................    16
 getmpw: optimal value of mpw= 1840

 DATASET    1 : space group Fm -3 m (#225); Bravais cF (face-center cubic)

 getdim_nloc: deduce lmnmax  =  13, lnmax  =   5,
                      lmnmaxso=  13, lnmaxso=   5.
memory: analysis of memory needs
================================================================================
 Values of the parameters that define the memory need for DATASET  1.
     intxc =       0    ionmov =       0      iscf =       7    lmnmax =       5
     lnmax =       5     mgfft =      36  mpssoang =       3    mqgrid =    3001
     natom =       2  nloc_mem =       1    nspden =       1   nspinor =       1
    nsppol =       1      nsym =      48    n1xccc =    2501    ntypat =       2
    occopt =       1   xclevel =       2
-    mband =         480        mffmem =           1         mkmem =           1
       mpw =        1840          nfft =       46656          nkpt =          29
================================================================================
P This job should need less than                      36.816 Mbytes of memory.
  Rough estimation (10% accuracy) of disk space for files :
_ WF disk file :    390.822 Mbytes ; DEN or POT disk file :      0.358 Mbytes.
================================================================================

 Biggest array : cg(disk), with     13.4786 MBytes.

 DATASET    2 : space group Fm -3 m (#225); Bravais cF (face-center cubic)

 getdim_nloc: deduce lmnmax  =  13, lnmax  =   5,
                      lmnmaxso=  13, lnmaxso=   5.
memory: analysis of memory needs
================================================================================
 Values of the parameters that define the memory need for DATASET  2.
     intxc =       0    ionmov =       0      iscf =       7    lmnmax =       5
     lnmax =       5     mgfft =      36  mpssoang =       3    mqgrid =    3001
     natom =       2  nloc_mem =       1    nspden =       1   nspinor =       1
    nsppol =       1      nsym =      48    n1xccc =    2501    ntypat =       2
    occopt =       1   xclevel =       2
-    mband =         480        mffmem =           1         mkmem =           1
       mpw =        1840          nfft =       46656          nkpt =          29
================================================================================
P This job should need less than                      36.816 Mbytes of memory.
  Rough estimation (10% accuracy) of disk space for files :
_ WF disk file :    390.822 Mbytes ; DEN or POT disk file :      0.358 Mbytes.
================================================================================

 Biggest array : cg(disk), with     13.4786 MBytes.
--------------------------------------------------------------------------------
------------- Echo of variables that govern the present computation ------------
--------------------------------------------------------------------------------
-
- outvars: echo of selected default values                                      
-   iomode0 =  0 , fftalg0 =312 , wfoptalg0 =  0
-
- outvars: echo of global parameters not present in the input file              
-  max_nthreads =    0
-
 -outvars: echo values of preprocessed input variables --------
 
 These variables are accessible in NetCDF format (outdata_ac_OUT.nc)

            acell      7.9614161978E+00  7.9614161978E+00  7.9614161978E+00 Bohr
              amu      2.43050000E+01  1.59994000E+01
             bdgw           1      12       1      12
           diemac      1.20000000E+01
             ecut      4.50000000E+01 Hartree
          ecuteps      1.20000000E+01 Hartree
         ecutsigx      4.50000000E+01 Hartree
          ecutwfn      4.50000000E+01 Hartree
-          fftalg         312
           getscr1          0
           getscr2         -1
           istwfk        1    0    0    0    1    0    0    0    0    0
                         0    0    0    0    0    0    0    0    0    0
                         1    0    0    0    0    0    0    0    0
              ixc          11
           jdtset        1    2
              kpt      0.00000000E+00  0.00000000E+00  0.00000000E+00
                       1.25000000E-01  0.00000000E+00  0.00000000E+00
                       2.50000000E-01  0.00000000E+00  0.00000000E+00
                       3.75000000E-01  0.00000000E+00  0.00000000E+00
                       5.00000000E-01  0.00000000E+00  0.00000000E+00
                       1.25000000E-01  1.25000000E-01  0.00000000E+00
                       2.50000000E-01  1.25000000E-01  0.00000000E+00
                       3.75000000E-01  1.25000000E-01  0.00000000E+00
                       5.00000000E-01  1.25000000E-01  0.00000000E+00
                      -3.75000000E-01  1.25000000E-01  0.00000000E+00
                      -2.50000000E-01  1.25000000E-01  0.00000000E+00
                      -1.25000000E-01  1.25000000E-01  0.00000000E+00
                       2.50000000E-01  2.50000000E-01  0.00000000E+00
                       3.75000000E-01  2.50000000E-01  0.00000000E+00
                       5.00000000E-01  2.50000000E-01  0.00000000E+00
                      -3.75000000E-01  2.50000000E-01  0.00000000E+00
                      -2.50000000E-01  2.50000000E-01  0.00000000E+00
                       3.75000000E-01  3.75000000E-01  0.00000000E+00
                       5.00000000E-01  3.75000000E-01  0.00000000E+00
                      -3.75000000E-01  3.75000000E-01  0.00000000E+00
                       5.00000000E-01  5.00000000E-01  0.00000000E+00
                       3.75000000E-01  2.50000000E-01  1.25000000E-01
                       5.00000000E-01  2.50000000E-01  1.25000000E-01
                      -3.75000000E-01  2.50000000E-01  1.25000000E-01
                       5.00000000E-01  3.75000000E-01  1.25000000E-01
                      -3.75000000E-01  3.75000000E-01  1.25000000E-01
                      -2.50000000E-01  3.75000000E-01  1.25000000E-01
                      -3.75000000E-01  5.00000000E-01  1.25000000E-01
                      -2.50000000E-01  5.00000000E-01  2.50000000E-01
            kptgw      0.00000000E+00  0.00000000E+00  0.00000000E+00
                       5.00000000E-01  5.00000000E-01  0.00000000E+00
         kptrlatt        8    0    0      0    8    0      0    0    8
          kptrlen      4.50365711E+01
P           mkmem           1
            natom           2
            nband         480
           ndtset           2
            ngfft          36      36      36
             nkpt          29
           nkptgw           2
           npweps         259
          npwsigx        1837
           npwwfn        1837
            nstep          50
             nsym          48
           ntypat           2
              occ      2.000000  2.000000  2.000000  2.000000  2.000000  2.000000
                       2.000000  2.000000  0.000000  0.000000  0.000000  0.000000
                       0.000000  0.000000  0.000000  0.000000  0.000000  0.000000
                       0.000000  0.000000  0.000000  0.000000  0.000000  0.000000
                       0.000000  0.000000  0.000000  0.000000  0.000000  0.000000
                       0.000000  0.000000  0.000000  0.000000  0.000000  0.000000
                       0.000000  0.000000  0.000000  0.000000  0.000000  0.000000
                       0.000000  0.000000  0.000000  0.000000  0.000000  0.000000
                       0.000000  0.000000  0.000000  0.000000  0.000000  0.000000
                       0.000000  0.000000  0.000000  0.000000  0.000000  0.000000
                       0.000000  0.000000  0.000000  0.000000  0.000000  0.000000
                       0.000000  0.000000  0.000000  0.000000  0.000000  0.000000
                       0.000000  0.000000  0.000000  0.000000  0.000000  0.000000
                       0.000000  0.000000  0.000000  0.000000  0.000000  0.000000
                       0.000000  0.000000  0.000000  0.000000  0.000000  0.000000
                       0.000000  0.000000  0.000000  0.000000  0.000000  0.000000
                       0.000000  0.000000  0.000000  0.000000  0.000000  0.000000
                       0.000000  0.000000  0.000000  0.000000  0.000000  0.000000
                       0.000000  0.000000  0.000000  0.000000  0.000000  0.000000
                       0.000000  0.000000  0.000000  0.000000  0.000000  0.000000
                       0.000000  0.000000  0.000000  0.000000  0.000000  0.000000
                       0.000000  0.000000  0.000000  0.000000  0.000000  0.000000
                       0.000000  0.000000  0.000000  0.000000  0.000000  0.000000
                       0.000000  0.000000  0.000000  0.000000  0.000000  0.000000
                       0.000000  0.000000  0.000000  0.000000  0.000000  0.000000
                       0.000000  0.000000  0.000000  0.000000  0.000000  0.000000
                       0.000000  0.000000  0.000000  0.000000  0.000000  0.000000
                       0.000000  0.000000  0.000000  0.000000  0.000000  0.000000
                       0.000000  0.000000  0.000000  0.000000  0.000000  0.000000
                       0.000000  0.000000  0.000000  0.000000  0.000000  0.000000
                       0.000000  0.000000  0.000000  0.000000  0.000000  0.000000
                       0.000000  0.000000  0.000000  0.000000  0.000000  0.000000
                       0.000000  0.000000  0.000000  0.000000  0.000000  0.000000
                       0.000000  0.000000  0.000000  0.000000  0.000000  0.000000
                       0.000000  0.000000  0.000000  0.000000  0.000000  0.000000
                       0.000000  0.000000  0.000000  0.000000  0.000000  0.000000
                       0.000000  0.000000  0.000000  0.000000  0.000000  0.000000
                       0.000000  0.000000  0.000000  0.000000  0.000000  0.000000
                       0.000000  0.000000  0.000000  0.000000  0.000000  0.000000
                       0.000000  0.000000  0.000000  0.000000  0.000000  0.000000
                       0.000000  0.000000  0.000000  0.000000  0.000000  0.000000
                       0.000000  0.000000  0.000000  0.000000  0.000000  0.000000
                       0.000000  0.000000  0.000000  0.000000  0.000000  0.000000
                       0.000000  0.000000  0.000000  0.000000  0.000000  0.000000
                       0.000000  0.000000  0.000000  0.000000  0.000000  0.000000
                       0.000000  0.000000  0.000000  0.000000  0.000000  0.000000
                       0.000000  0.000000  0.000000  0.000000  0.000000  0.000000
                       0.000000  0.000000  0.000000  0.000000  0.000000  0.000000
                       0.000000  0.000000  0.000000  0.000000  0.000000  0.000000
                       0.000000  0.000000  0.000000  0.000000  0.000000  0.000000
                       0.000000  0.000000  0.000000  0.000000  0.000000  0.000000
                       0.000000  0.000000  0.000000  0.000000  0.000000  0.000000
                       0.000000  0.000000  0.000000  0.000000  0.000000  0.000000
                       0.000000  0.000000  0.000000  0.000000  0.000000  0.000000
                       0.000000  0.000000  0.000000  0.000000  0.000000  0.000000
                       0.000000  0.000000  0.000000  0.000000  0.000000  0.000000
                       0.000000  0.000000  0.000000  0.000000  0.000000  0.000000
                       0.000000  0.000000  0.000000  0.000000  0.000000  0.000000
                       0.000000  0.000000  0.000000  0.000000  0.000000  0.000000
                       0.000000  0.000000  0.000000  0.000000  0.000000  0.000000
                       0.000000  0.000000  0.000000  0.000000  0.000000  0.000000
                       0.000000  0.000000  0.000000  0.000000  0.000000  0.000000
                       0.000000  0.000000  0.000000  0.000000  0.000000  0.000000
                       0.000000  0.000000  0.000000  0.000000  0.000000  0.000000
                       0.000000  0.000000  0.000000  0.000000  0.000000  0.000000
                       0.000000  0.000000  0.000000  0.000000  0.000000  0.000000
                       0.000000  0.000000  0.000000  0.000000  0.000000  0.000000
                       0.000000  0.000000  0.000000  0.000000  0.000000  0.000000
                       0.000000  0.000000  0.000000  0.000000  0.000000  0.000000
                       0.000000  0.000000  0.000000  0.000000  0.000000  0.000000
                       0.000000  0.000000  0.000000  0.000000  0.000000  0.000000
                       0.000000  0.000000  0.000000  0.000000  0.000000  0.000000
                       0.000000  0.000000  0.000000  0.000000  0.000000  0.000000
                       0.000000  0.000000  0.000000  0.000000  0.000000  0.000000
                       0.000000  0.000000  0.000000  0.000000  0.000000  0.000000
                       0.000000  0.000000  0.000000  0.000000  0.000000  0.000000
                       0.000000  0.000000  0.000000  0.000000  0.000000  0.000000
                       0.000000  0.000000  0.000000  0.000000  0.000000  0.000000
                       0.000000  0.000000  0.000000  0.000000  0.000000  0.000000
                       0.000000  0.000000  0.000000  0.000000  0.000000  0.000000
        optdriver1          3
        optdriver2          4
            rprim      0.0000000000E+00  5.0000000000E-01  5.0000000000E-01
                       5.0000000000E-01  0.0000000000E+00  5.0000000000E-01
                       5.0000000000E-01  5.0000000000E-01  0.0000000000E+00
          spgroup         225
           symrel      1  0  0   0  1  0   0  0  1      -1  0  0   0 -1  0   0  0 -1
                       0 -1  1   0 -1  0   1 -1  0       0  1 -1   0  1  0  -1  1  0
                      -1  0  0  -1  0  1  -1  1  0       1  0  0   1  0 -1   1 -1  0
                       0  1 -1   1  0 -1   0  0 -1       0 -1  1  -1  0  1   0  0  1
                      -1  0  0  -1  1  0  -1  0  1       1  0  0   1 -1  0   1  0 -1
                       0 -1  1   1 -1  0   0 -1  0       0  1 -1  -1  1  0   0  1  0
                       1  0  0   0  0  1   0  1  0      -1  0  0   0  0 -1   0 -1  0
                       0  1 -1   0  0 -1   1  0 -1       0 -1  1   0  0  1  -1  0  1
                      -1  0  1  -1  1  0  -1  0  0       1  0 -1   1 -1  0   1  0  0
                       0 -1  0   1 -1  0   0 -1  1       0  1  0  -1  1  0   0  1 -1
                       1  0 -1   0  0 -1   0  1 -1      -1  0  1   0  0  1   0 -1  1
                       0  1  0   0  0  1   1  0  0       0 -1  0   0  0 -1  -1  0  0
                       1  0 -1   0  1 -1   0  0 -1      -1  0  1   0 -1  1   0  0  1
                       0 -1  0   0 -1  1   1 -1  0       0  1  0   0  1 -1  -1  1  0
                      -1  0  1  -1  0  0  -1  1  0       1  0 -1   1  0  0   1 -1  0
                       0  1  0   1  0  0   0  0  1       0 -1  0  -1  0  0   0  0 -1
                       0  0 -1   0  1 -1   1  0 -1       0  0  1   0 -1  1  -1  0  1
                       1 -1  0   0 -1  1   0 -1  0      -1  1  0   0  1 -1   0  1  0
                       0  0  1   1  0  0   0  1  0       0  0 -1  -1  0  0   0 -1  0
                      -1  1  0  -1  0  0  -1  0  1       1 -1  0   1  0  0   1  0 -1
                       0  0  1   0  1  0   1  0  0       0  0 -1   0 -1  0  -1  0  0
                       1 -1  0   0 -1  0   0 -1  1      -1  1  0   0  1  0   0  1 -1
                       0  0 -1   1  0 -1   0  1 -1       0  0  1  -1  0  1   0 -1  1
                      -1  1  0  -1  0  1  -1  0  0       1 -1  0   1  0 -1   1  0  0
           timopt          -1
            typat      1  2
              wtk        0.00195    0.01563    0.01563    0.01563    0.00781    0.01172
                         0.04688    0.04688    0.04688    0.04688    0.04688    0.02344
                         0.01172    0.04688    0.04688    0.04688    0.02344    0.01172
                         0.04688    0.02344    0.00586    0.04688    0.09375    0.04688
                         0.04688    0.09375    0.04688    0.02344    0.01172
           xangst      0.0000000000E+00  0.0000000000E+00  0.0000000000E+00
                       2.1065000000E+00  2.1065000000E+00  2.1065000000E+00
            xcart      0.0000000000E+00  0.0000000000E+00  0.0000000000E+00
                       3.9807080989E+00  3.9807080989E+00  3.9807080989E+00
             xred      0.0000000000E+00  0.0000000000E+00  0.0000000000E+00
                       5.0000000000E-01  5.0000000000E-01  5.0000000000E-01
            znucl       12.00000    8.00000

================================================================================

 chkinp: Checking input parameters for consistency, jdtset=   1.

 chkinp: Checking input parameters for consistency, jdtset=   2.
 DATA TYPE INFORMATION: 
 REAL:      Data type name: REAL(DP) 
            Kind value:      8
            Precision:      15
            Smallest nonnegligible quantity relative to 1: 0.22204460E-015
            Smallest positive number:                      0.22250739E-307
            Largest representable number:                  0.17976931E+309
 INTEGER:   Data type name: INTEGER(default) 
            Kind value: 4
            Bit size:   32
            Largest representable number: 2147483647
 LOGICAL:   Data type name: LOGICAL 
            Kind value: 4
 CHARACTER: Data type name: CHARACTER             Kind value: 1

  ==== OpenMP parallelism is OFF ====
 
  ==== Using MPI-2 specifications ==== 
  MPI-IO support is ON
  xmpi_tag_ub ................    536870911
  xmpi_bsize_ch ..............            1
  xmpi_bsize_int .............            4
  xmpi_bsize_sp ..............            4
  xmpi_bsize_dp ..............            8
  xmpi_bsize_spc .............            8
  xmpi_bsize_dpc .............           16
  xmpio_bsize_frm ............            4
  xmpi_address_kind ..........            8
  xmpi_offset_kind ...........            8
  MPI_WTICK ..................    2.0000000000000000E-008

================================================================================
== DATASET  1 ==================================================================
-   mpi_nproc: 128, omp_nthreads: -1 (-1 if OMP is not activated)


--- !COMMENT
src_file: m_xgScalapack.F90
src_line: 230
message: |
    xgScalapack in auto mode
...

 mkfilename: getwfk from: ../outdata_gs_DS2_WFK


 getdim_nloc: deduce lmnmax  =  13, lnmax  =   5,
                      lmnmaxso=  13, lnmaxso=   5.
 Exchange-correlation functional for the present dataset will be:
  GGA: Perdew-Burke-Ernzerhof functional - ixc=11
 Citation for XC functional:
  J.P.Perdew, K.Burke, M.Ernzerhof, PRL 77, 3865 (1996)

 SCREENING: Calculation of the susceptibility and dielectric matrices 

 Based on a program developped by R.W. Godby, V. Olevano, G. Onida, and L. Reining.
 Incorporated in ABINIT by V. Olevano, G.-M. Rignanese, and M. Torrent.
.Using single precision arithmetic ; gwpc =  4

 Unit cell volume ucvol=  1.2615690E+02 bohr^3
 Angles (23,13,12)=  6.00000000E+01  6.00000000E+01  6.00000000E+01 degrees

 getcut: wavevector=  0.0000  0.0000  0.0000  ngfft=  36  36  36
         ecut(hartree)=     45.000   => boxcut(ratio)=   2.11766

 ==== Dense FFT mesh used for densities and potentials ====
  FFT mesh divisions ........................    36   36   36
  Augmented FFT divisions ...................    37   37   36
  FFT algorithm .............................   312
  FFT cache size ............................    16
- pspini: atom type   1  psp file is ../Mg.psp8
- pspatm: opening atomic psp file    ../Mg.psp8
- Mg    ONCVPSP-3.2.3.1  r_core=   1.16056   1.56380
- 12.00000  10.00000    170504                znucl, zion, pspdat
    8   11    1    4       400   0.00000      pspcod,pspxc,lmax,lloc,mmax,r2well
    3.99000000000000    0.00000000000000    0.00000000000000   rchrg,fchrg,qchrg
     nproj     2     2
     extension_switch     1
  valence charge (before rescaling) integrates to:    9.5530969747686001     
  pspatm : epsatm=    9.22845333
         --- l  ekb(1:nproj) -->
             0    2.250005   -0.808630
             1   -6.469357   -2.503313
 pspatm: atomic psp has been read  and splines computed

- pspini: atom type   2  psp file is ../O.psp8
- pspatm: opening atomic psp file    ../O.psp8
- O     ONCVPSP-3.2.3.1  r_core=   1.35509   1.45563   1.26150
-  8.00000   6.00000    170504                znucl, zion, pspdat
    8   11    2    4       600   0.00000      pspcod,pspxc,lmax,lloc,mmax,r2well
    5.99000000000000    4.00000000000000    0.00000000000000   rchrg,fchrg,qchrg
     nproj     2     2     1
     extension_switch     1
  valence charge (before rescaling) integrates to:    5.9990318752405338     
  pspatm : epsatm=    6.19546011
         --- l  ekb(1:nproj) -->
             0    6.056735    0.824024
             1   -4.717130   -1.149271
             2   -1.331955
 pspatm: atomic psp has been read  and splines computed

   2.46782615E+02                                ecore*ucvol(ha*bohr**3)
 ==== Info on pseudopotentials ====
  Norm-conserving pseudopotentials
  Number of pseudopotentials ..    2
  Number of types of atoms   ..    2
  Scalar calculation (no spin-orbit term)
  Nonlocal part applied using Legendre polynomials
  Max number of non-local projectors over l and type   2
  Highest angular momentum +1 .......   3
  Max number of (l,n)   components ..   5
  Max number of (l,m,n) components ..   5

 Pseudo-Core Charge Info: 
   Number of radial points for pseudo-core charge .. 2501
   XC core-correction treatment (optnlxccc) ........    1
   Radius for pseudo-core charge for each type ..... 

  - Atom type    1 has pseudo-core radius ..  0.0000
  - Atom type    2 has pseudo-core radius ..  5.9900

 Info on the Q-grid used for form factors in spline form: 
   Number of q-points for radial functions ffspl ..   3001
   Number of q-points for vlspl ...................   3001
   vloc is computed in Reciprocal Space
   model core charge treated in real-space

  XC functional for type 1 is 11
  Pseudo valence available: yes
  XC functional for type 2 is 11
  Pseudo valence available: yes


 GW calculation type              =    0
 zcut to avoid poles in chi0 [eV] =   0.100000

 Reading eigenvalues from: ../outdata_gs_DS2_WFK , with iomode: IO_MODE_FORTRAN
 wfk_read_eigenvalues_io , wall:  0.23 [s] , cpu:  0.23 [s] <<< TIME
 wfk_read_eigenvalues , wall:  0.24 [s] , cpu:  0.23 [s] <<< TIME

 Sorting g-vecs for an output of states on an unique "big" PW basis.
 Since the number of g's to be written on file
 was 0 or too large, it has been set to the max. value.,
 computed from the union of the sets of G vectors for the different k-points.
 Number of G-vectors is:  2373

  ==== Info on the Cryst% object ====
 Real(R)+Recip(G) space primitive vectors, cartesian coordinates (Bohr,Bohr^-1):
 R(1)=  0.0000000  3.9807081  3.9807081  G(1)= -0.1256058  0.1256058  0.1256058
 R(2)=  3.9807081  0.0000000  3.9807081  G(2)=  0.1256058 -0.1256058  0.1256058
 R(3)=  3.9807081  3.9807081  0.0000000  G(3)=  0.1256058  0.1256058 -0.1256058
 Unit cell volume ucvol=  1.2615690E+02 bohr^3
 Angles (23,13,12)=  6.00000000E+01  6.00000000E+01  6.00000000E+01 degrees
 Time-reversal symmetry is present
 Reduced atomic positions [iatom, xred, symbol]:
    1)    0.0000000  0.0000000  0.0000000  Mg
    2)    0.5000000  0.5000000  0.5000000   O
 ==== K-mesh for the wavefunctions ====
 Number of points in the irreducible wedge :    29
 Reduced coordinates and weights : 

     1)     0.00000000E+00  0.00000000E+00  0.00000000E+00       0.00195
     2)     1.25000000E-01  0.00000000E+00  0.00000000E+00       0.01563
     3)     2.50000000E-01  0.00000000E+00  0.00000000E+00       0.01563
     4)     3.75000000E-01  0.00000000E+00  0.00000000E+00       0.01563
     5)     5.00000000E-01  0.00000000E+00  0.00000000E+00       0.00781
     6)     1.25000000E-01  1.25000000E-01  0.00000000E+00       0.01172
     7)     2.50000000E-01  1.25000000E-01  0.00000000E+00       0.04688
     8)     3.75000000E-01  1.25000000E-01  0.00000000E+00       0.04688
     9)     5.00000000E-01  1.25000000E-01  0.00000000E+00       0.04688
    10)    -3.75000000E-01  1.25000000E-01  0.00000000E+00       0.04688
    11)    -2.50000000E-01  1.25000000E-01  0.00000000E+00       0.04688
    12)    -1.25000000E-01  1.25000000E-01  0.00000000E+00       0.02344
    13)     2.50000000E-01  2.50000000E-01  0.00000000E+00       0.01172
    14)     3.75000000E-01  2.50000000E-01  0.00000000E+00       0.04688
    15)     5.00000000E-01  2.50000000E-01  0.00000000E+00       0.04688
    16)    -3.75000000E-01  2.50000000E-01  0.00000000E+00       0.04688
    17)    -2.50000000E-01  2.50000000E-01  0.00000000E+00       0.02344
    18)     3.75000000E-01  3.75000000E-01  0.00000000E+00       0.01172
    19)     5.00000000E-01  3.75000000E-01  0.00000000E+00       0.04688
    20)    -3.75000000E-01  3.75000000E-01  0.00000000E+00       0.02344
    21)     5.00000000E-01  5.00000000E-01  0.00000000E+00       0.00586
    22)     3.75000000E-01  2.50000000E-01  1.25000000E-01       0.04688
    23)     5.00000000E-01  2.50000000E-01  1.25000000E-01       0.09375
    24)    -3.75000000E-01  2.50000000E-01  1.25000000E-01       0.04688
    25)     5.00000000E-01  3.75000000E-01  1.25000000E-01       0.04688
    26)    -3.75000000E-01  3.75000000E-01  1.25000000E-01       0.09375
    27)    -2.50000000E-01  3.75000000E-01  1.25000000E-01       0.04688
    28)    -3.75000000E-01  5.00000000E-01  1.25000000E-01       0.02344
    29)    -2.50000000E-01  5.00000000E-01  2.50000000E-01       0.01172

 Together with 48 symmetry operations and time-reversal symmetry 
 yields   512 points in the full Brillouin Zone.


 ==== Q-mesh for the screening function ====
 Number of points in the irreducible wedge :    29
 Reduced coordinates and weights : 

     1)     0.00000000E+00  0.00000000E+00  0.00000000E+00       0.00195
     2)     1.25000000E-01  0.00000000E+00  0.00000000E+00       0.01563
     3)     2.50000000E-01  0.00000000E+00  0.00000000E+00       0.01563
     4)     3.75000000E-01  0.00000000E+00  0.00000000E+00       0.01563
     5)     5.00000000E-01  0.00000000E+00  0.00000000E+00       0.00781
     6)     1.25000000E-01  1.25000000E-01  0.00000000E+00       0.01172
     7)     2.50000000E-01  1.25000000E-01  0.00000000E+00       0.04688
     8)     3.75000000E-01  1.25000000E-01  0.00000000E+00       0.04688
     9)     5.00000000E-01  1.25000000E-01  0.00000000E+00       0.04688
    10)    -3.75000000E-01  1.25000000E-01  0.00000000E+00       0.04688
    11)    -2.50000000E-01  1.25000000E-01  0.00000000E+00       0.04688
    12)    -1.25000000E-01  1.25000000E-01  0.00000000E+00       0.02344
    13)     2.50000000E-01  2.50000000E-01  0.00000000E+00       0.01172
    14)     3.75000000E-01  2.50000000E-01  0.00000000E+00       0.04688
    15)     5.00000000E-01  2.50000000E-01  0.00000000E+00       0.04688
    16)    -3.75000000E-01  2.50000000E-01  0.00000000E+00       0.04688
    17)    -2.50000000E-01  2.50000000E-01  0.00000000E+00       0.02344
    18)     3.75000000E-01  3.75000000E-01  0.00000000E+00       0.01172
    19)     5.00000000E-01  3.75000000E-01  0.00000000E+00       0.04688
    20)    -3.75000000E-01  3.75000000E-01  0.00000000E+00       0.02344
    21)     5.00000000E-01  5.00000000E-01  0.00000000E+00       0.00586
    22)     3.75000000E-01  2.50000000E-01  1.25000000E-01       0.04688
    23)     5.00000000E-01  2.50000000E-01  1.25000000E-01       0.09375
    24)    -3.75000000E-01  2.50000000E-01  1.25000000E-01       0.04688
    25)     5.00000000E-01  3.75000000E-01  1.25000000E-01       0.04688
    26)    -3.75000000E-01  3.75000000E-01  1.25000000E-01       0.09375
    27)    -2.50000000E-01  3.75000000E-01  1.25000000E-01       0.04688
    28)    -3.75000000E-01  5.00000000E-01  1.25000000E-01       0.02344
    29)    -2.50000000E-01  5.00000000E-01  2.50000000E-01       0.01172

 Together with 48 symmetry operations and time-reversal symmetry 
 yields   512 points in the full Brillouin Zone.


 Optimal value for ng0sh: [2, 2, 1]
  Due to umklapp processes : ecutepspg0=    11.211187719366736     

 setmesh: npwwfn        =     1837; Max (m1,m2,m3)   =      8     8     8
          npweps/npwsigx=      259; Max (mm1,mm2,mm3)=      6     6     5
          mG0 added     =   2  2  1
 calculated ecutwfn          =  44.845 [Ha] 
 calculated ecutsigx/ecuteps =  11.211 [Ha]
 using method =  2 with ecuteff = 100.901 [Ha]
 Finding a FFT mesh compatible with all the symmetries
 setmesh: divisor mesh 1 1 1
 setmesh: FFT mesh size selected  =    25x   25x   25
          total number of points  =        15625

vcp%i_sz 4.606567E+03

 vcoul_init : cutoff-mode = AUXILIARY_FUNCTION
 q-points for optical limit:   1
     1)      0.000010    0.000020    0.000030

 ==== FFT mesh used for oscillator strengths ====
  FFT mesh divisions ........................    25   25   25
  Augmented FFT divisions ...................    25   25   25
  FFT algorithm .............................   312
  FFT cache size ............................    16
 Top of valence:   4.7187 (eV)
 Bottom of conduction:   9.4798 (eV)
 Fundamental gap:  4.7611 (eV)

 Fermi level: 7.0992  (eV) 

 Memory needed for Fourier components u(G):      4.9 [Mb] <<< MEM
 Storing wavefunctions in single precision as `enable_gw_dpc="no"`
 Memory needed for real-space u(r):     41.5 [Mb] <<< MEM
 Memory needed for bks_tab:      1.7 [Mb] <<< MEM
 wfd_init , wall:  0.05 [s] , cpu:  0.05 [s] <<< TIME
 ==== Info on the Wfd% object ====
  Number of irreducible k-points ........ 29
  Number of spinorial components ........ 1
  Number of spin-density components ..... 1
  Number of spin polarizations .......... 1
  Plane wave cutoff energy ..............  45.0
  Max number of G-vectors ............... 1840
  Total number of FFT points ............ 15625
  Number of FFT points treated by me .... 15625


 ==== FFT mesh for wavefunctions ====
  FFT mesh divisions ........................    25   25   25
  Augmented FFT divisions ...................    25   25   25
  FFT algorithm .............................   312
  FFT cache size ............................    16

 Total number of (b,k,s) states stored by this rank: 348
 Memory allocated for Fourier components u(G):      4.9 [Mb] <<< MEM
 Memory allocated for real-space u(r):      0.0 [Mb] <<< MEM
 Memory needed for wfd%s datastructure:      0.0 [Mb] <<< MEM
 Memory needed for wfd%s(0)%k datastructure:      0.0 [Mb] <<< MEM
 Memory allocated for Kdata array:      0.0 [Mb] <<< MEM



 wfd_read_wfk: Reading file: ../outdata_gs_DS2_WFK  with iomode: IO_MODE_MPI , master_only: yes
 If MPI-IO is too slow, use the command line option `abinit --enforce-fortran-io ...` 
  to make the master proc read data with Fortran-IO and then broadcast (requires more memory)
 About to read: 348  (b, k, s) states in total.
 For spin: 1 , will read: 29  k-points out of: 29
    Reading kpt [1/29] spin [1/1] , wall:  0.11 [s] , cpu:  0.11 [s] <<< TIME
    Reading kpt [2/29] spin [1/1] , wall:  0.11 [s] , cpu:  0.11 [s] <<< TIME
    Reading kpt [3/29] spin [1/1] , wall:  0.02 [s] , cpu:  0.02 [s] <<< TIME
    Reading kpt [4/29] spin [1/1] , wall:  0.08 [s] , cpu:  0.08 [s] <<< TIME
    Reading kpt [5/29] spin [1/1] , wall:  0.02 [s] , cpu:  0.02 [s] <<< TIME
    Reading kpt [6/29] spin [1/1] , wall:  0.03 [s] , cpu:  0.03 [s] <<< TIME
    Reading kpt [7/29] spin [1/1] , wall:  0.03 [s] , cpu:  0.03 [s] <<< TIME
    Reading kpt [8/29] spin [1/1] , wall:  0.12 [s] , cpu:  0.12 [s] <<< TIME
    Reading kpt [9/29] spin [1/1] , wall:  0.02 [s] , cpu:  0.02 [s] <<< TIME
    Reading kpt [10/29] spin [1/1] , wall:  0.03 [s] , cpu:  0.03 [s] <<< TIME
 WFK IO , wall:  1.20 [s] , cpu:  1.20 [s] <<< TIME


 planewave contribution to nelect:   16.0000
 Number of electrons calculated from density =   16.0000; Expected =   16.0000
 average of density, n =  0.126826
 r_s =    1.2347
 omega_plasma =   34.3526 [eV]

 Total charge density [el/Bohr^3]
)     Maximum=    3.3939E+00  at reduced coord.    0.9722    0.9722    0.9722
)     Minimum=    9.9286E-03  at reduced coord.    0.2500    0.2500    0.2500
   Integrated=    1.6000E+01

 1/G**2 cut-off applied in the following step : cutoff-mode = CRYSTAL

 1/G**2 cut-off applied in the following step : cutoff-mode = CRYSTAL

 1/G**2 cut-off applied in the following step : cutoff-mode = CRYSTAL

 calculating chi0 at frequencies [eV] :
  1    0.000000E+00    0.000000E+00
  2    0.000000E+00    3.435263E+01
 Memory required for chi0 matrix=          1.0 [Mb].


--------------------------------------------------------------------------------
  q-point number  1        q = ( 0.000000, 0.000000, 0.000000) [r.l.u.]
--------------------------------------------------------------------------------
 Q-points for long wave-length limit. #   1
     1)      0.000010    0.000020    0.000030

 Using spectral method for the imaginary part =  0
 Using symmetries to sum only over the IBZ_q  =  1
 Using faster algorithm based on time reversal symmetry.
 Memory needed for bbp_ks_distrb: 450.0  [Mb] <<< MEM
 Will sum 928 (b,b',k,s) states in chi0q0.
 Calculating chi0(q=(0,0,0),omega,G,G")

 ==== Little Group Info ==== 
  External point: [ 0.0000E+00,  0.0000E+00,  0.0000E+00]
  Number of points in the IBZ defined by little group:  29/512
  Number of operations in the little group: 96/48
  No time-reversal symmetry with zero umklapp: 48
  No time-reversal symmetry with non-zero umklapp:  0

  time-reversal symmetry with zero umklapp: 48
  time-reversal symmetry with non-zero umklapp:  0

 Calculation status: 29  k-points to be completed
 ik=    1/ 512 spin= 1 done by mpi rank:  0
 ik=    2/ 512 spin= 1 done by mpi rank:  0
 ik=   10/ 512 spin= 1 done by mpi rank:  0
 ik=   18/ 512 spin= 1 done by mpi rank:  0
 ik=   26/ 512 spin= 1 done by mpi rank:  0
 ik=   30/ 512 spin= 1 done by mpi rank:  0
 ik=   36/ 512 spin= 1 done by mpi rank:  0
 ik=   60/ 512 spin= 1 done by mpi rank:  0
 ik=   84/ 512 spin= 1 done by mpi rank:  0
 ik=  108/ 512 spin= 1 done by mpi rank:  0
 ik=  132/ 512 spin= 1 done by mpi rank:  0
 ik=  156/ 512 spin= 1 done by mpi rank:  0
 ik=  168/ 512 spin= 1 done by mpi rank:  0
 ik=  174/ 512 spin= 1 done by mpi rank:  0
 ik=  198/ 512 spin= 1 done by mpi rank:  0
 ik=  222/ 512 spin= 1 done by mpi rank:  0
 ik=  246/ 512 spin= 1 done by mpi rank:  0
 ik=  258/ 512 spin= 1 done by mpi rank:  0
 ik=  264/ 512 spin= 1 done by mpi rank:  0
 ik=  288/ 512 spin= 1 done by mpi rank:  0
 ik=  300/ 512 spin= 1 done by mpi rank:  0
 ik=  303/ 512 spin= 1 done by mpi rank:  0
 ik=  327/ 512 spin= 1 done by mpi rank:  0
 ik=  375/ 512 spin= 1 done by mpi rank:  0
 ik=  399/ 512 spin= 1 done by mpi rank:  0
 ik=  423/ 512 spin= 1 done by mpi rank:  0
 ik=  471/ 512 spin= 1 done by mpi rank:  0
 ik=  495/ 512 spin= 1 done by mpi rank:  0
 ik=  507/ 512 spin= 1 done by mpi rank:  0
 cpu_time =       1.2, wall_time =       1.2
  chi0(G,G') at the    1 th omega   0.0000   0.0000 [eV]
  chi0(q =  1, omega =   1, G,G')
       1       2       3       4       5       6       7       8       9
    1  -0.000  -0.000   0.000   0.000  -0.000  -0.000   0.000   0.000  -0.000
       -0.000  -0.000   0.000   0.000  -0.000  -0.000   0.000   0.000  -0.000

    2  -0.000  -8.300  -0.424  -1.530  -2.625  -1.530  -2.625  -1.530  -2.625
        0.000   0.000  -0.000   0.000   0.000   0.000   0.000  -0.000   0.000

    3   0.000  -0.424  -8.300  -2.625  -1.530  -2.625  -1.530  -2.625  -1.530
       -0.000   0.000   0.000  -0.000   0.000  -0.000   0.000  -0.000  -0.000

    4   0.000  -1.530  -2.625  -8.300  -0.424  -1.530  -2.625  -1.530  -2.625
       -0.000  -0.000   0.000   0.000  -0.000  -0.000   0.000  -0.000  -0.000

    5  -0.000  -2.625  -1.530  -0.424  -8.300  -2.625  -1.530  -2.625  -1.530
        0.000  -0.000  -0.000   0.000   0.000   0.000  -0.000  -0.000  -0.000

    6  -0.000  -1.530  -2.625  -1.530  -2.625  -8.300  -0.424  -1.530  -2.625
        0.000  -0.000   0.000   0.000  -0.000   0.000  -0.000  -0.000   0.000

    7   0.000  -2.625  -1.530  -2.625  -1.530  -0.424  -8.300  -2.625  -1.530
       -0.000  -0.000  -0.000  -0.000   0.000   0.000   0.000  -0.000  -0.000

    8   0.000  -1.530  -2.625  -1.530  -2.625  -1.530  -2.625  -8.300  -0.424
       -0.000   0.000   0.000   0.000   0.000   0.000   0.000   0.000  -0.000

    9  -0.000  -2.625  -1.530  -2.625  -1.530  -2.625  -1.530  -0.424  -8.300
        0.000  -0.000   0.000   0.000   0.000  -0.000   0.000   0.000   0.000

  chi0(G,G') at the    2 th omega   0.0000  34.3526 [eV]
  chi0(q =  1, omega =   2, G,G')
       1       2       3       4       5       6       7       8       9
    1  -0.000  -0.000   0.000   0.000  -0.000  -0.000   0.000   0.000  -0.000
       -0.000  -0.000   0.000   0.000  -0.000  -0.000   0.000   0.000  -0.000

    2  -0.000  -3.653   0.305  -0.074  -0.841  -0.074  -0.841  -0.074  -0.841
        0.000   0.000  -0.000   0.000   0.000   0.000   0.000  -0.000   0.000

    3   0.000   0.305  -3.653  -0.841  -0.074  -0.841  -0.074  -0.841  -0.074
       -0.000   0.000   0.000   0.000   0.000  -0.000   0.000  -0.000  -0.000

    4   0.000  -0.074  -0.841  -3.653   0.305  -0.074  -0.841  -0.074  -0.841
       -0.000  -0.000  -0.000   0.000  -0.000  -0.000   0.000  -0.000   0.000

    5  -0.000  -0.841  -0.074   0.305  -3.653  -0.841  -0.074  -0.841  -0.074
        0.000  -0.000  -0.000   0.000   0.000  -0.000  -0.000  -0.000  -0.000

    6  -0.000  -0.074  -0.841  -0.074  -0.841  -3.653   0.305  -0.074  -0.841
        0.000  -0.000   0.000   0.000   0.000   0.000  -0.000  -0.000   0.000

    7   0.000  -0.841  -0.074  -0.841  -0.074   0.305  -3.653  -0.841  -0.074
       -0.000  -0.000  -0.000  -0.000   0.000   0.000   0.000  -0.000  -0.000

    8   0.000  -0.074  -0.841  -0.074  -0.841  -0.074  -0.841  -3.653   0.305
       -0.000   0.000   0.000   0.000   0.000   0.000   0.000   0.000  -0.000

    9  -0.000  -0.841  -0.074  -0.841  -0.074  -0.841  -0.074   0.305  -3.653
        0.000  -0.000   0.000  -0.000   0.000  -0.000   0.000   0.000   0.000

 Analyzing long wavelength limit for several q
 For q-point:  0.000010 0.000020 0.000030
  dielectric constant =   3.0194
  dielectric constant without local fields =   3.2427

  Average fulfillment of the sum rule on Im[epsilon] for q-point    1 :    106.55  [%]


--------------------------------------------------------------------------------
  q-point number  2        q = ( 0.125000, 0.000000, 0.000000) [r.l.u.]
--------------------------------------------------------------------------------
 Using spectral method for the imaginary part =  0
 Using symmetries to sum only over the IBZ_q  =  1
 Using faster algorithm based on time reversal symmetry.
 Memory needed for bbp_ks_distrb: 450.0  [Mb] <<< MEM
 Will sum 3840 (b,b',k,s) states in chi0.
 Calculating chi0(q,omega,G,G")

 ==== Little Group Info ==== 
  External point: [ 1.2500E-01,  0.0000E+00,  0.0000E+00]
  Number of points in the IBZ defined by little group:  120/512
  Number of operations in the little group: 12/48
  No time-reversal symmetry with zero umklapp:  6
  No time-reversal symmetry with non-zero umklapp:  0

  time-reversal symmetry with zero umklapp:  6
  time-reversal symmetry with non-zero umklapp:  0

 Calculation status: 120 k-points to be completed
 ik=    1/ 512 spin=  1 done by mpi rank:  0
 ik=    2/ 512 spin=  1 done by mpi rank:  0
 ik=    3/ 512 spin=  1 done by mpi rank:  0
 ik=    4/ 512 spin=  1 done by mpi rank:  0
 ik=    5/ 512 spin=  1 done by mpi rank:  0
 ik=   10/ 512 spin=  1 done by mpi rank:  0
 ik=   11/ 512 spin=  1 done by mpi rank:  0
 ik=   12/ 512 spin=  1 done by mpi rank:  0
 ik=   13/ 512 spin=  1 done by mpi rank:  0
 ik=   18/ 512 spin=  1 done by mpi rank:  0
 ik=   19/ 512 spin=  1 done by mpi rank:  0
 ik=   20/ 512 spin=  1 done by mpi rank:  0
 ik=   21/ 512 spin=  1 done by mpi rank:  0
 ik=   26/ 512 spin=  1 done by mpi rank:  0
 ik=   27/ 512 spin=  1 done by mpi rank:  0
 ik=   30/ 512 spin=  1 done by mpi rank:  0
 ik=   31/ 512 spin=  1 done by mpi rank:  0
 ik=   36/ 512 spin=  1 done by mpi rank:  0
 ik=   37/ 512 spin=  1 done by mpi rank:  0
 ik=   38/ 512 spin=  1 done by mpi rank:  0
 ik=   39/ 512 spin=  1 done by mpi rank:  0
 ik=   42/ 512 spin=  1 done by mpi rank:  0
 ik=   43/ 512 spin=  1 done by mpi rank:  0
 ik=   60/ 512 spin=  1 done by mpi rank:  0
 ik=   61/ 512 spin=  1 done by mpi rank:  0
 ik=   62/ 512 spin=  1 done by mpi rank:  0
 ik=   63/ 512 spin=  1 done by mpi rank:  0
 ik=   66/ 512 spin=  1 done by mpi rank:  0
 ik=   67/ 512 spin=  1 done by mpi rank:  0
 ik=   84/ 512 spin=  1 done by mpi rank:  0
 ik=   85/ 512 spin=  1 done by mpi rank:  0
 ik=   86/ 512 spin=  1 done by mpi rank:  0
 ik=   87/ 512 spin=  1 done by mpi rank:  0
 ik=   90/ 512 spin=  1 done by mpi rank:  0
 ik=   91/ 512 spin=  1 done by mpi rank:  0
 ik=  108/ 512 spin=  1 done by mpi rank:  0
 ik=  109/ 512 spin=  1 done by mpi rank:  0
 ik=  110/ 512 spin=  1 done by mpi rank:  0
 ik=  111/ 512 spin=  1 done by mpi rank:  0
 ik=  114/ 512 spin=  1 done by mpi rank:  0
 ik=  115/ 512 spin=  1 done by mpi rank:  0
 ik=  132/ 512 spin=  1 done by mpi rank:  0
 ik=  133/ 512 spin=  1 done by mpi rank:  0
 ik=  134/ 512 spin=  1 done by mpi rank:  0
 ik=  135/ 512 spin=  1 done by mpi rank:  0
 ik=  138/ 512 spin=  1 done by mpi rank:  0
 ik=  139/ 512 spin=  1 done by mpi rank:  0
 ik=  156/ 512 spin=  1 done by mpi rank:  0
 ik=  157/ 512 spin=  1 done by mpi rank:  0
 ik=  158/ 512 spin=  1 done by mpi rank:  0
 ik=  168/ 512 spin=  1 done by mpi rank:  0
 ik=  169/ 512 spin=  1 done by mpi rank:  0
 ik=  174/ 512 spin=  1 done by mpi rank:  0
 ik=  175/ 512 spin=  1 done by mpi rank:  0
 ik=  176/ 512 spin=  1 done by mpi rank:  0
 ik=  177/ 512 spin=  1 done by mpi rank:  0
 ik=  180/ 512 spin=  1 done by mpi rank:  0
 ik=  181/ 512 spin=  1 done by mpi rank:  0
 ik=  198/ 512 spin=  1 done by mpi rank:  0
 ik=  199/ 512 spin=  1 done by mpi rank:  0
 ik=  200/ 512 spin=  1 done by mpi rank:  0
 ik=  201/ 512 spin=  1 done by mpi rank:  0
 ik=  204/ 512 spin=  1 done by mpi rank:  0
 ik=  205/ 512 spin=  1 done by mpi rank:  0
 ik=  222/ 512 spin=  1 done by mpi rank:  0
 ik=  223/ 512 spin=  1 done by mpi rank:  0
 ik=  224/ 512 spin=  1 done by mpi rank:  0
 ik=  225/ 512 spin=  1 done by mpi rank:  0
 ik=  228/ 512 spin=  1 done by mpi rank:  0
 ik=  229/ 512 spin=  1 done by mpi rank:  0
 ik=  246/ 512 spin=  1 done by mpi rank:  0
 ik=  247/ 512 spin=  1 done by mpi rank:  0
 ik=  248/ 512 spin=  1 done by mpi rank:  0
 ik=  258/ 512 spin=  1 done by mpi rank:  0
 ik=  259/ 512 spin=  1 done by mpi rank:  0
 ik=  264/ 512 spin=  1 done by mpi rank:  0
 ik=  265/ 512 spin=  1 done by mpi rank:  0
 ik=  266/ 512 spin=  1 done by mpi rank:  0
 ik=  267/ 512 spin=  1 done by mpi rank:  0
 ik=  270/ 512 spin=  1 done by mpi rank:  0
 ik=  271/ 512 spin=  1 done by mpi rank:  0
 ik=  288/ 512 spin=  1 done by mpi rank:  0
 ik=  289/ 512 spin=  1 done by mpi rank:  0
 ik=  290/ 512 spin=  1 done by mpi rank:  0
 ik=  300/ 512 spin=  1 done by mpi rank:  0
 ik=  303/ 512 spin=  1 done by mpi rank:  0
 ik=  304/ 512 spin=  1 done by mpi rank:  0
 ik=  305/ 512 spin=  1 done by mpi rank:  0
 ik=  306/ 512 spin=  1 done by mpi rank:  0
 ik=  327/ 512 spin=  1 done by mpi rank:  0
 ik=  328/ 512 spin=  1 done by mpi rank:  0
 ik=  329/ 512 spin=  1 done by mpi rank:  0
 ik=  330/ 512 spin=  1 done by mpi rank:  0
 ik=  331/ 512 spin=  1 done by mpi rank:  0
 ik=  332/ 512 spin=  1 done by mpi rank:  0
 ik=  333/ 512 spin=  1 done by mpi rank:  0
 ik=  334/ 512 spin=  1 done by mpi rank:  0
 ik=  375/ 512 spin=  1 done by mpi rank:  0
 ik=  377/ 512 spin=  1 done by mpi rank:  0
 ik=  379/ 512 spin=  1 done by mpi rank:  0
 ik=  380/ 512 spin=  1 done by mpi rank:  0
 ik=  399/ 512 spin=  1 done by mpi rank:  0
 ik=  400/ 512 spin=  1 done by mpi rank:  0
 ik=  401/ 512 spin=  1 done by mpi rank:  0
 ik=  402/ 512 spin=  1 done by mpi rank:  0
 ik=  423/ 512 spin=  1 done by mpi rank:  0
 ik=  424/ 512 spin=  1 done by mpi rank:  0
 ik=  425/ 512 spin=  1 done by mpi rank:  0
 ik=  426/ 512 spin=  1 done by mpi rank:  0
 ik=  427/ 512 spin=  1 done by mpi rank:  0
 ik=  428/ 512 spin=  1 done by mpi rank:  0
 ik=  429/ 512 spin=  1 done by mpi rank:  0
 ik=  430/ 512 spin=  1 done by mpi rank:  0
 ik=  471/ 512 spin=  1 done by mpi rank:  0
 ik=  472/ 512 spin=  1 done by mpi rank:  0
 ik=  473/ 512 spin=  1 done by mpi rank:  0
 ik=  474/ 512 spin=  1 done by mpi rank:  0
 ik=  495/ 512 spin=  1 done by mpi rank:  0
 ik=  496/ 512 spin=  1 done by mpi rank:  0
 ik=  507/ 512 spin=  1 done by mpi rank:  0
 cpu_time =       1.2, wall_time =       1.2
  chi0(G,G') at the    1 th omega   0.0000   0.0000 [eV]
  chi0(q =  2, omega =   1, G,G')
       1       2       3       4       5       6       7       8       9
    1  -0.616   0.555  -0.520   0.056   0.393   0.056   0.393   0.056   0.393
        0.000   0.000   0.000  -0.000   0.000  -0.000   0.000  -0.000   0.000

    2   0.555  -8.465  -0.430  -1.744  -2.920  -1.744  -2.920  -1.744  -2.920
       -0.000   0.000  -0.000  -0.000   0.000  -0.000   0.000  -0.000   0.000

    3  -0.520  -0.430  -7.936  -2.269  -1.310  -2.269  -1.310  -2.269  -1.310
       -0.000   0.000   0.000   0.000   0.000   0.000   0.000   0.000   0.000

    4   0.056  -1.744  -2.269  -8.290  -0.560  -1.384  -2.701  -1.384  -2.701
        0.000   0.000  -0.000   0.000  -0.000  -0.000   0.000   0.000   0.000

    5   0.393  -2.920  -1.310  -0.560  -8.440  -2.701  -1.797  -2.701  -1.797
       -0.000  -0.000  -0.000   0.000   0.000  -0.000   0.000  -0.000  -0.000

    6   0.056  -1.744  -2.269  -1.384  -2.701  -8.290  -0.560  -1.384  -2.701
        0.000   0.000  -0.000   0.000   0.000   0.000  -0.000   0.000   0.000

    7   0.393  -2.920  -1.310  -2.701  -1.797  -0.560  -8.440  -2.701  -1.797
       -0.000  -0.000  -0.000  -0.000  -0.000   0.000   0.000  -0.000  -0.000

    8   0.056  -1.744  -2.269  -1.384  -2.701  -1.384  -2.701  -8.290  -0.560
        0.000   0.000  -0.000  -0.000   0.000  -0.000   0.000   0.000  -0.000

    9   0.393  -2.920  -1.310  -2.701  -1.797  -2.701  -1.797  -0.560  -8.440
       -0.000  -0.000  -0.000  -0.000   0.000  -0.000   0.000   0.000   0.000

  chi0(G,G') at the    2 th omega   0.0000  34.3526 [eV]
  chi0(q =  2, omega =   2, G,G')
       1       2       3       4       5       6       7       8       9
    1  -0.101   0.118  -0.111  -0.018   0.058  -0.018   0.058  -0.018   0.058
        0.000   0.000   0.000  -0.000   0.000  -0.000   0.000  -0.000   0.000

    2   0.118  -4.072   0.299  -0.189  -1.074  -0.189  -1.074  -0.189  -1.074
       -0.000   0.000  -0.000  -0.000   0.000  -0.000   0.000  -0.000   0.000

    3  -0.111   0.299  -3.153  -0.603   0.028  -0.603   0.028  -0.603   0.028
       -0.000   0.000   0.000  -0.000   0.000  -0.000   0.000   0.000   0.000

    4  -0.018  -0.189  -0.603  -3.522   0.285   0.019  -0.860   0.019  -0.860
        0.000   0.000   0.000   0.000  -0.000  -0.000   0.000   0.000   0.000

    5   0.058  -1.074   0.028   0.285  -3.825  -0.860  -0.197  -0.860  -0.197
       -0.000  -0.000  -0.000   0.000   0.000  -0.000   0.000  -0.000  -0.000

    6  -0.018  -0.189  -0.603   0.019  -0.860  -3.522   0.285   0.019  -0.860
        0.000   0.000   0.000   0.000   0.000   0.000  -0.000   0.000   0.000

    7   0.058  -1.074   0.028  -0.860  -0.197   0.285  -3.825  -0.860  -0.197
       -0.000  -0.000  -0.000  -0.000  -0.000   0.000   0.000  -0.000  -0.000

    8  -0.018  -0.189  -0.603   0.019  -0.860   0.019  -0.860  -3.522   0.285
        0.000   0.000  -0.000  -0.000   0.000  -0.000   0.000   0.000  -0.000

    9   0.058  -1.074   0.028  -0.860  -0.197  -0.860  -0.197   0.285  -3.825
       -0.000  -0.000  -0.000  -0.000   0.000  -0.000   0.000   0.000   0.000

  Average fulfillment of the sum rule on Im[epsilon] for q-point    2 :    112.05  [%]


--------------------------------------------------------------------------------
  q-point number  3        q = ( 0.250000, 0.000000, 0.000000) [r.l.u.]
--------------------------------------------------------------------------------
 Using spectral method for the imaginary part =  0
 Using symmetries to sum only over the IBZ_q  =  1
 Using faster algorithm based on time reversal symmetry.
 Memory needed for bbp_ks_distrb: 450.0  [Mb] <<< MEM
 Will sum 3840 (b,b',k,s) states in chi0.
 Calculating chi0(q,omega,G,G")

 ==== Little Group Info ==== 
  External point: [ 2.5000E-01,  0.0000E+00,  0.0000E+00]
  Number of points in the IBZ defined by little group:  120/512
  Number of operations in the little group: 12/48
  No time-reversal symmetry with zero umklapp:  6
  No time-reversal symmetry with non-zero umklapp:  0

  time-reversal symmetry with zero umklapp:  6
  time-reversal symmetry with non-zero umklapp:  0

 Calculation status: 120 k-points to be completed
 ik=    1/ 512 spin=  1 done by mpi rank:  0
 ik=    2/ 512 spin=  1 done by mpi rank:  0
 ik=    3/ 512 spin=  1 done by mpi rank:  0
 ik=    4/ 512 spin=  1 done by mpi rank:  0
 ik=    5/ 512 spin=  1 done by mpi rank:  0
 ik=   10/ 512 spin=  1 done by mpi rank:  0
 ik=   11/ 512 spin=  1 done by mpi rank:  0
 ik=   12/ 512 spin=  1 done by mpi rank:  0
 ik=   13/ 512 spin=  1 done by mpi rank:  0
 ik=   18/ 512 spin=  1 done by mpi rank:  0
 ik=   19/ 512 spin=  1 done by mpi rank:  0
 ik=   20/ 512 spin=  1 done by mpi rank:  0
 ik=   21/ 512 spin=  1 done by mpi rank:  0
 ik=   26/ 512 spin=  1 done by mpi rank:  0
 ik=   27/ 512 spin=  1 done by mpi rank:  0
 ik=   30/ 512 spin=  1 done by mpi rank:  0
 ik=   31/ 512 spin=  1 done by mpi rank:  0
 ik=   36/ 512 spin=  1 done by mpi rank:  0
 ik=   37/ 512 spin=  1 done by mpi rank:  0
 ik=   38/ 512 spin=  1 done by mpi rank:  0
 ik=   39/ 512 spin=  1 done by mpi rank:  0
 ik=   42/ 512 spin=  1 done by mpi rank:  0
 ik=   43/ 512 spin=  1 done by mpi rank:  0
 ik=   60/ 512 spin=  1 done by mpi rank:  0
 ik=   61/ 512 spin=  1 done by mpi rank:  0
 ik=   62/ 512 spin=  1 done by mpi rank:  0
 ik=   63/ 512 spin=  1 done by mpi rank:  0
 ik=   66/ 512 spin=  1 done by mpi rank:  0
 ik=   67/ 512 spin=  1 done by mpi rank:  0
 ik=   84/ 512 spin=  1 done by mpi rank:  0
 ik=   85/ 512 spin=  1 done by mpi rank:  0
 ik=   86/ 512 spin=  1 done by mpi rank:  0
 ik=   87/ 512 spin=  1 done by mpi rank:  0
 ik=   90/ 512 spin=  1 done by mpi rank:  0
 ik=   91/ 512 spin=  1 done by mpi rank:  0
 ik=  108/ 512 spin=  1 done by mpi rank:  0
 ik=  109/ 512 spin=  1 done by mpi rank:  0
 ik=  110/ 512 spin=  1 done by mpi rank:  0
 ik=  111/ 512 spin=  1 done by mpi rank:  0
 ik=  114/ 512 spin=  1 done by mpi rank:  0
 ik=  115/ 512 spin=  1 done by mpi rank:  0
 ik=  132/ 512 spin=  1 done by mpi rank:  0
 ik=  133/ 512 spin=  1 done by mpi rank:  0
 ik=  134/ 512 spin=  1 done by mpi rank:  0
 ik=  135/ 512 spin=  1 done by mpi rank:  0
 ik=  138/ 512 spin=  1 done by mpi rank:  0
 ik=  139/ 512 spin=  1 done by mpi rank:  0
 ik=  156/ 512 spin=  1 done by mpi rank:  0
 ik=  157/ 512 spin=  1 done by mpi rank:  0
 ik=  158/ 512 spin=  1 done by mpi rank:  0
 ik=  168/ 512 spin=  1 done by mpi rank:  0
 ik=  169/ 512 spin=  1 done by mpi rank:  0
 ik=  174/ 512 spin=  1 done by mpi rank:  0
 ik=  175/ 512 spin=  1 done by mpi rank:  0
 ik=  176/ 512 spin=  1 done by mpi rank:  0
 ik=  177/ 512 spin=  1 done by mpi rank:  0
 ik=  180/ 512 spin=  1 done by mpi rank:  0
 ik=  181/ 512 spin=  1 done by mpi rank:  0
 ik=  198/ 512 spin=  1 done by mpi rank:  0
 ik=  199/ 512 spin=  1 done by mpi rank:  0
 ik=  200/ 512 spin=  1 done by mpi rank:  0
 ik=  201/ 512 spin=  1 done by mpi rank:  0
 ik=  204/ 512 spin=  1 done by mpi rank:  0
 ik=  205/ 512 spin=  1 done by mpi rank:  0
 ik=  222/ 512 spin=  1 done by mpi rank:  0
 ik=  223/ 512 spin=  1 done by mpi rank:  0
 ik=  224/ 512 spin=  1 done by mpi rank:  0
 ik=  225/ 512 spin=  1 done by mpi rank:  0
 ik=  228/ 512 spin=  1 done by mpi rank:  0
 ik=  229/ 512 spin=  1 done by mpi rank:  0
 ik=  246/ 512 spin=  1 done by mpi rank:  0
 ik=  247/ 512 spin=  1 done by mpi rank:  0
 ik=  248/ 512 spin=  1 done by mpi rank:  0
 ik=  258/ 512 spin=  1 done by mpi rank:  0
 ik=  259/ 512 spin=  1 done by mpi rank:  0
 ik=  264/ 512 spin=  1 done by mpi rank:  0
 ik=  265/ 512 spin=  1 done by mpi rank:  0
 ik=  266/ 512 spin=  1 done by mpi rank:  0
 ik=  267/ 512 spin=  1 done by mpi rank:  0
 ik=  270/ 512 spin=  1 done by mpi rank:  0
 ik=  271/ 512 spin=  1 done by mpi rank:  0
 ik=  288/ 512 spin=  1 done by mpi rank:  0
 ik=  289/ 512 spin=  1 done by mpi rank:  0
 ik=  290/ 512 spin=  1 done by mpi rank:  0
 ik=  300/ 512 spin=  1 done by mpi rank:  0
 ik=  303/ 512 spin=  1 done by mpi rank:  0
 ik=  304/ 512 spin=  1 done by mpi rank:  0
 ik=  305/ 512 spin=  1 done by mpi rank:  0
 ik=  306/ 512 spin=  1 done by mpi rank:  0
 ik=  327/ 512 spin=  1 done by mpi rank:  0
 ik=  328/ 512 spin=  1 done by mpi rank:  0
 ik=  329/ 512 spin=  1 done by mpi rank:  0
 ik=  330/ 512 spin=  1 done by mpi rank:  0
 ik=  331/ 512 spin=  1 done by mpi rank:  0
 ik=  332/ 512 spin=  1 done by mpi rank:  0
 ik=  333/ 512 spin=  1 done by mpi rank:  0
 ik=  334/ 512 spin=  1 done by mpi rank:  0
 ik=  375/ 512 spin=  1 done by mpi rank:  0
 ik=  377/ 512 spin=  1 done by mpi rank:  0
 ik=  379/ 512 spin=  1 done by mpi rank:  0
 ik=  380/ 512 spin=  1 done by mpi rank:  0
 ik=  399/ 512 spin=  1 done by mpi rank:  0
 ik=  400/ 512 spin=  1 done by mpi rank:  0
 ik=  401/ 512 spin=  1 done by mpi rank:  0
 ik=  402/ 512 spin=  1 done by mpi rank:  0
 ik=  423/ 512 spin=  1 done by mpi rank:  0
 ik=  424/ 512 spin=  1 done by mpi rank:  0
 ik=  425/ 512 spin=  1 done by mpi rank:  0
 ik=  426/ 512 spin=  1 done by mpi rank:  0
 ik=  427/ 512 spin=  1 done by mpi rank:  0
 ik=  428/ 512 spin=  1 done by mpi rank:  0
 ik=  429/ 512 spin=  1 done by mpi rank:  0
 ik=  430/ 512 spin=  1 done by mpi rank:  0
 ik=  471/ 512 spin=  1 done by mpi rank:  0
 ik=  472/ 512 spin=  1 done by mpi rank:  0
 ik=  473/ 512 spin=  1 done by mpi rank:  0
 ik=  474/ 512 spin=  1 done by mpi rank:  0
 ik=  495/ 512 spin=  1 done by mpi rank:  0
 ik=  496/ 512 spin=  1 done by mpi rank:  0
 ik=  507/ 512 spin=  1 done by mpi rank:  0
 cpu_time =       1.2, wall_time =       1.2
  chi0(G,G') at the    1 th omega   0.0000   0.0000 [eV]
  chi0(q =  3, omega =   1, G,G')
       1       2       3       4       5       6       7       8       9
    1  -2.087   1.003  -0.903   0.497   0.986   0.497   0.986   0.497   0.986
        0.000   0.000   0.000   0.000   0.000   0.000   0.000   0.000   0.000

    2   1.003  -8.479  -0.448  -1.903  -3.131  -1.903  -3.131  -1.903  -3.131
       -0.000   0.000  -0.000  -0.000   0.000  -0.000   0.000  -0.000   0.000

    3  -0.903  -0.448  -7.330  -1.875  -1.106  -1.875  -1.106  -1.875  -1.106
       -0.000   0.000   0.000   0.000   0.000   0.000   0.000   0.000   0.000

    4   0.497  -1.903  -1.875  -8.393  -0.880  -1.393  -2.865  -1.393  -2.865
       -0.000   0.000  -0.000   0.000  -0.000  -0.000   0.000   0.000  -0.000

    5   0.986  -3.131  -1.106  -0.880  -8.600  -2.865  -2.049  -2.865  -2.049
       -0.000  -0.000  -0.000   0.000   0.000  -0.000   0.000   0.000  -0.000

    6   0.497  -1.903  -1.875  -1.393  -2.865  -8.393  -0.880  -1.393  -2.865
       -0.000   0.000  -0.000   0.000   0.000   0.000  -0.000   0.000   0.000

    7   0.986  -3.131  -1.106  -2.865  -2.049  -0.880  -8.600  -2.865  -2.049
       -0.000  -0.000  -0.000  -0.000  -0.000   0.000   0.000  -0.000  -0.000

    8   0.497  -1.903  -1.875  -1.393  -2.865  -1.393  -2.865  -8.393  -0.880
       -0.000   0.000  -0.000  -0.000  -0.000  -0.000   0.000   0.000  -0.000

    9   0.986  -3.131  -1.106  -2.865  -2.049  -2.865  -2.049  -0.880  -8.600
       -0.000  -0.000  -0.000   0.000   0.000  -0.000   0.000   0.000   0.000

  chi0(G,G') at the    2 th omega   0.0000  34.3526 [eV]
  chi0(q =  3, omega =   2, G,G')
       1       2       3       4       5       6       7       8       9
    1  -0.391   0.231  -0.202   0.008   0.146   0.008   0.146   0.008   0.146
        0.000   0.000   0.000   0.000   0.000   0.000   0.000   0.000   0.000

    2   0.231  -4.402   0.283  -0.311  -1.293  -0.311  -1.293  -0.311  -1.293
       -0.000   0.000  -0.000  -0.000   0.000  -0.000   0.000  -0.000   0.000

    3  -0.202   0.283  -2.588  -0.374   0.111  -0.374   0.111  -0.374   0.111
       -0.000   0.000   0.000   0.000   0.000  -0.000   0.000   0.000   0.000

    4   0.008  -0.311  -0.374  -3.446   0.229   0.075  -0.915   0.075  -0.915
       -0.000   0.000  -0.000   0.000  -0.000  -0.000   0.000   0.000   0.000

    5   0.146  -1.293   0.111   0.229  -4.020  -0.915  -0.336  -0.915  -0.336
       -0.000  -0.000  -0.000   0.000   0.000  -0.000   0.000  -0.000  -0.000

    6   0.008  -0.311  -0.374   0.075  -0.915  -3.446   0.229   0.075  -0.915
       -0.000   0.000   0.000   0.000   0.000   0.000  -0.000   0.000   0.000

    7   0.146  -1.293   0.111  -0.915  -0.336   0.229  -4.020  -0.915  -0.336
       -0.000  -0.000  -0.000  -0.000  -0.000   0.000   0.000  -0.000  -0.000

    8   0.008  -0.311  -0.374   0.075  -0.915   0.075  -0.915  -3.446   0.229
       -0.000   0.000  -0.000  -0.000   0.000  -0.000   0.000   0.000  -0.000

    9   0.146  -1.293   0.111  -0.915  -0.336  -0.915  -0.336   0.229  -4.020
       -0.000  -0.000  -0.000  -0.000   0.000  -0.000   0.000   0.000   0.000

  Average fulfillment of the sum rule on Im[epsilon] for q-point    3 :    110.62  [%]


--------------------------------------------------------------------------------
  q-point number  4        q = ( 0.375000, 0.000000, 0.000000) [r.l.u.]
--------------------------------------------------------------------------------
 Using spectral method for the imaginary part =  0
 Using symmetries to sum only over the IBZ_q  =  1
 Using faster algorithm based on time reversal symmetry.
 Memory needed for bbp_ks_distrb: 450.0  [Mb] <<< MEM
 Will sum 3840 (b,b',k,s) states in chi0.
 Calculating chi0(q,omega,G,G")

 ==== Little Group Info ==== 
  External point: [ 3.7500E-01,  0.0000E+00,  0.0000E+00]
  Number of points in the IBZ defined by little group:  120/512
  Number of operations in the little group: 12/48
  No time-reversal symmetry with zero umklapp:  6
  No time-reversal symmetry with non-zero umklapp:  0

  time-reversal symmetry with zero umklapp:  6
  time-reversal symmetry with non-zero umklapp:  0

 Calculation status: 120 k-points to be completed
 ik=    1/ 512 spin=  1 done by mpi rank:  0
 ik=    2/ 512 spin=  1 done by mpi rank:  0
 ik=    3/ 512 spin=  1 done by mpi rank:  0
 ik=    4/ 512 spin=  1 done by mpi rank:  0
 ik=    5/ 512 spin=  1 done by mpi rank:  0
 ik=   10/ 512 spin=  1 done by mpi rank:  0
 ik=   11/ 512 spin=  1 done by mpi rank:  0
 ik=   12/ 512 spin=  1 done by mpi rank:  0
 ik=   13/ 512 spin=  1 done by mpi rank:  0
 ik=   18/ 512 spin=  1 done by mpi rank:  0
 ik=   19/ 512 spin=  1 done by mpi rank:  0
 ik=   20/ 512 spin=  1 done by mpi rank:  0
 ik=   21/ 512 spin=  1 done by mpi rank:  0
 ik=   26/ 512 spin=  1 done by mpi rank:  0
 ik=   27/ 512 spin=  1 done by mpi rank:  0
 ik=   30/ 512 spin=  1 done by mpi rank:  0
 ik=   31/ 512 spin=  1 done by mpi rank:  0
 ik=   36/ 512 spin=  1 done by mpi rank:  0
 ik=   37/ 512 spin=  1 done by mpi rank:  0
 ik=   38/ 512 spin=  1 done by mpi rank:  0
 ik=   39/ 512 spin=  1 done by mpi rank:  0
 ik=   42/ 512 spin=  1 done by mpi rank:  0
 ik=   43/ 512 spin=  1 done by mpi rank:  0
 ik=   60/ 512 spin=  1 done by mpi rank:  0
 ik=   61/ 512 spin=  1 done by mpi rank:  0
 ik=   62/ 512 spin=  1 done by mpi rank:  0
 ik=   63/ 512 spin=  1 done by mpi rank:  0
 ik=   66/ 512 spin=  1 done by mpi rank:  0
 ik=   67/ 512 spin=  1 done by mpi rank:  0
 ik=   84/ 512 spin=  1 done by mpi rank:  0
 ik=   85/ 512 spin=  1 done by mpi rank:  0
 ik=   86/ 512 spin=  1 done by mpi rank:  0
 ik=   87/ 512 spin=  1 done by mpi rank:  0
 ik=   90/ 512 spin=  1 done by mpi rank:  0
 ik=   91/ 512 spin=  1 done by mpi rank:  0
 ik=  108/ 512 spin=  1 done by mpi rank:  0
 ik=  109/ 512 spin=  1 done by mpi rank:  0
 ik=  110/ 512 spin=  1 done by mpi rank:  0
 ik=  111/ 512 spin=  1 done by mpi rank:  0
 ik=  114/ 512 spin=  1 done by mpi rank:  0
 ik=  115/ 512 spin=  1 done by mpi rank:  0
 ik=  132/ 512 spin=  1 done by mpi rank:  0
 ik=  133/ 512 spin=  1 done by mpi rank:  0
 ik=  134/ 512 spin=  1 done by mpi rank:  0
 ik=  135/ 512 spin=  1 done by mpi rank:  0
 ik=  138/ 512 spin=  1 done by mpi rank:  0
 ik=  139/ 512 spin=  1 done by mpi rank:  0
 ik=  156/ 512 spin=  1 done by mpi rank:  0
 ik=  157/ 512 spin=  1 done by mpi rank:  0
 ik=  158/ 512 spin=  1 done by mpi rank:  0
 ik=  168/ 512 spin=  1 done by mpi rank:  0
 ik=  169/ 512 spin=  1 done by mpi rank:  0
 ik=  174/ 512 spin=  1 done by mpi rank:  0
 ik=  175/ 512 spin=  1 done by mpi rank:  0
 ik=  176/ 512 spin=  1 done by mpi rank:  0
 ik=  177/ 512 spin=  1 done by mpi rank:  0
 ik=  180/ 512 spin=  1 done by mpi rank:  0
 ik=  181/ 512 spin=  1 done by mpi rank:  0
 ik=  198/ 512 spin=  1 done by mpi rank:  0
 ik=  199/ 512 spin=  1 done by mpi rank:  0
 ik=  200/ 512 spin=  1 done by mpi rank:  0
 ik=  201/ 512 spin=  1 done by mpi rank:  0
 ik=  204/ 512 spin=  1 done by mpi rank:  0
 ik=  205/ 512 spin=  1 done by mpi rank:  0
 ik=  222/ 512 spin=  1 done by mpi rank:  0
 ik=  223/ 512 spin=  1 done by mpi rank:  0
 ik=  224/ 512 spin=  1 done by mpi rank:  0
 ik=  225/ 512 spin=  1 done by mpi rank:  0
 ik=  228/ 512 spin=  1 done by mpi rank:  0
 ik=  229/ 512 spin=  1 done by mpi rank:  0
 ik=  246/ 512 spin=  1 done by mpi rank:  0
 ik=  247/ 512 spin=  1 done by mpi rank:  0
 ik=  248/ 512 spin=  1 done by mpi rank:  0
 ik=  258/ 512 spin=  1 done by mpi rank:  0
 ik=  259/ 512 spin=  1 done by mpi rank:  0
 ik=  264/ 512 spin=  1 done by mpi rank:  0
 ik=  265/ 512 spin=  1 done by mpi rank:  0
 ik=  266/ 512 spin=  1 done by mpi rank:  0
 ik=  267/ 512 spin=  1 done by mpi rank:  0
 ik=  270/ 512 spin=  1 done by mpi rank:  0
 ik=  271/ 512 spin=  1 done by mpi rank:  0
 ik=  288/ 512 spin=  1 done by mpi rank:  0
 ik=  289/ 512 spin=  1 done by mpi rank:  0
 ik=  290/ 512 spin=  1 done by mpi rank:  0
 ik=  300/ 512 spin=  1 done by mpi rank:  0
 ik=  303/ 512 spin=  1 done by mpi rank:  0
 ik=  304/ 512 spin=  1 done by mpi rank:  0
 ik=  305/ 512 spin=  1 done by mpi rank:  0
 ik=  306/ 512 spin=  1 done by mpi rank:  0
 ik=  327/ 512 spin=  1 done by mpi rank:  0
 ik=  328/ 512 spin=  1 done by mpi rank:  0
 ik=  329/ 512 spin=  1 done by mpi rank:  0
 ik=  330/ 512 spin=  1 done by mpi rank:  0
 ik=  331/ 512 spin=  1 done by mpi rank:  0
 ik=  332/ 512 spin=  1 done by mpi rank:  0
 ik=  333/ 512 spin=  1 done by mpi rank:  0
 ik=  334/ 512 spin=  1 done by mpi rank:  0
 ik=  375/ 512 spin=  1 done by mpi rank:  0
 ik=  377/ 512 spin=  1 done by mpi rank:  0
 ik=  379/ 512 spin=  1 done by mpi rank:  0
 ik=  380/ 512 spin=  1 done by mpi rank:  0
 ik=  399/ 512 spin=  1 done by mpi rank:  0
 ik=  400/ 512 spin=  1 done by mpi rank:  0
 ik=  401/ 512 spin=  1 done by mpi rank:  0
 ik=  402/ 512 spin=  1 done by mpi rank:  0
 ik=  423/ 512 spin=  1 done by mpi rank:  0
 ik=  424/ 512 spin=  1 done by mpi rank:  0
 ik=  425/ 512 spin=  1 done by mpi rank:  0
 ik=  426/ 512 spin=  1 done by mpi rank:  0
 ik=  427/ 512 spin=  1 done by mpi rank:  0
 ik=  428/ 512 spin=  1 done by mpi rank:  0
 ik=  429/ 512 spin=  1 done by mpi rank:  0
 ik=  430/ 512 spin=  1 done by mpi rank:  0
 ik=  471/ 512 spin=  1 done by mpi rank:  0
 ik=  472/ 512 spin=  1 done by mpi rank:  0
 ik=  473/ 512 spin=  1 done by mpi rank:  0
 ik=  474/ 512 spin=  1 done by mpi rank:  0
 ik=  495/ 512 spin=  1 done by mpi rank:  0
 ik=  496/ 512 spin=  1 done by mpi rank:  0
 ik=  507/ 512 spin=  1 done by mpi rank:  0
 cpu_time =       1.2, wall_time =       1.2
  chi0(G,G') at the    1 th omega   0.0000   0.0000 [eV]
  chi0(q =  4, omega =   1, G,G')
       1       2       3       4       5       6       7       8       9
    1  -3.760   1.286  -1.127   1.073   1.502   1.073   1.502   1.073   1.502
        0.000   0.000   0.000   0.000   0.000   0.000   0.000   0.000   0.000

    2   1.286  -8.381  -0.470  -1.978  -3.270  -1.978  -3.270  -1.978  -3.270
       -0.000   0.000  -0.000   0.000   0.000  -0.000   0.000   0.000   0.000

    3  -1.127  -0.470  -6.443  -1.446  -0.917  -1.446  -0.917  -1.446  -0.917
       -0.000   0.000   0.000   0.000   0.000   0.000   0.000   0.000   0.000

    4   1.073  -1.978  -1.446  -8.507  -1.222  -1.493  -3.016  -1.493  -3.016
       -0.000  -0.000  -0.000   0.000  -0.000  -0.000   0.000   0.000   0.000

    5   1.502  -3.270  -0.917  -1.222  -8.673  -3.016  -2.191  -3.016  -2.191
       -0.000  -0.000  -0.000   0.000   0.000  -0.000   0.000  -0.000  -0.000

    6   1.073  -1.978  -1.446  -1.493  -3.016  -8.507  -1.222  -1.493  -3.016
       -0.000   0.000  -0.000   0.000   0.000   0.000  -0.000   0.000   0.000

    7   1.502  -3.270  -0.917  -3.016  -2.191  -1.222  -8.673  -3.016  -2.191
       -0.000  -0.000  -0.000  -0.000  -0.000   0.000   0.000  -0.000  -0.000

    8   1.073  -1.978  -1.446  -1.493  -3.016  -1.493  -3.016  -8.507  -1.222
       -0.000  -0.000  -0.000  -0.000   0.000  -0.000   0.000   0.000  -0.000

    9   1.502  -3.270  -0.917  -3.016  -2.191  -3.016  -2.191  -1.222  -8.673
       -0.000  -0.000  -0.000  -0.000   0.000  -0.000   0.000   0.000   0.000

  chi0(G,G') at the    2 th omega   0.0000  34.3526 [eV]
  chi0(q =  4, omega =   2, G,G')
       1       2       3       4       5       6       7       8       9
    1  -0.836   0.330  -0.261   0.074   0.250   0.074   0.250   0.074   0.250
        0.000   0.000   0.000   0.000   0.000   0.000   0.000   0.000   0.000

    2   0.330  -4.644   0.257  -0.432  -1.492  -0.432  -1.492  -0.432  -1.492
       -0.000   0.000  -0.000   0.000   0.000  -0.000   0.000   0.000   0.000

    3  -0.261   0.257  -1.986  -0.171   0.168  -0.171   0.168  -0.171   0.168
       -0.000   0.000   0.000   0.000   0.000   0.000   0.000   0.000   0.000

    4   0.074  -0.432  -0.171  -3.431   0.142   0.086  -1.002   0.086  -1.002
       -0.000  -0.000  -0.000   0.000  -0.000  -0.000   0.000   0.000   0.000

    5   0.250  -1.492   0.168   0.142  -4.222  -1.002  -0.482  -1.002  -0.482
       -0.000  -0.000  -0.000   0.000   0.000  -0.000   0.000  -0.000  -0.000

    6   0.074  -0.432  -0.171   0.086  -1.002  -3.431   0.142   0.086  -1.002
       -0.000   0.000  -0.000   0.000   0.000   0.000  -0.000   0.000   0.000

    7   0.250  -1.492   0.168  -1.002  -0.482   0.142  -4.222  -1.002  -0.482
       -0.000  -0.000  -0.000  -0.000  -0.000   0.000   0.000  -0.000  -0.000

    8   0.074  -0.432  -0.171   0.086  -1.002   0.086  -1.002  -3.431   0.142
       -0.000  -0.000  -0.000  -0.000   0.000  -0.000   0.000   0.000  -0.000

    9   0.250  -1.492   0.168  -1.002  -0.482  -1.002  -0.482   0.142  -4.222
       -0.000  -0.000  -0.000  -0.000   0.000  -0.000   0.000   0.000   0.000

  Average fulfillment of the sum rule on Im[epsilon] for q-point    4 :    109.43  [%]


--------------------------------------------------------------------------------
  q-point number  5        q = ( 0.500000, 0.000000, 0.000000) [r.l.u.]
--------------------------------------------------------------------------------
 Using spectral method for the imaginary part =  0
 Using symmetries to sum only over the IBZ_q  =  1
 Using faster algorithm based on time reversal symmetry.
 Memory needed for bbp_ks_distrb: 450.0  [Mb] <<< MEM
 Will sum 3840 (b,b',k,s) states in chi0.
 Calculating chi0(q,omega,G,G")

 ==== Little Group Info ==== 
  External point: [ 5.0000E-01,  0.0000E+00,  0.0000E+00]
  Number of points in the IBZ defined by little group:  120/512
  Number of operations in the little group: 12/48
  No time-reversal symmetry with zero umklapp:  6
  No time-reversal symmetry with non-zero umklapp:  0

  time-reversal symmetry with zero umklapp:  6
  time-reversal symmetry with non-zero umklapp:  0

 Calculation status: 120 k-points to be completed
 ik=    1/ 512 spin=  1 done by mpi rank:  0
 ik=    2/ 512 spin=  1 done by mpi rank:  0
 ik=    3/ 512 spin=  1 done by mpi rank:  0
 ik=    4/ 512 spin=  1 done by mpi rank:  0
 ik=    5/ 512 spin=  1 done by mpi rank:  0
 ik=   10/ 512 spin=  1 done by mpi rank:  0
 ik=   11/ 512 spin=  1 done by mpi rank:  0
 ik=   12/ 512 spin=  1 done by mpi rank:  0
 ik=   13/ 512 spin=  1 done by mpi rank:  0
 ik=   18/ 512 spin=  1 done by mpi rank:  0
 ik=   19/ 512 spin=  1 done by mpi rank:  0
 ik=   20/ 512 spin=  1 done by mpi rank:  0
 ik=   21/ 512 spin=  1 done by mpi rank:  0
 ik=   26/ 512 spin=  1 done by mpi rank:  0
 ik=   27/ 512 spin=  1 done by mpi rank:  0
 ik=   30/ 512 spin=  1 done by mpi rank:  0
 ik=   31/ 512 spin=  1 done by mpi rank:  0
 ik=   36/ 512 spin=  1 done by mpi rank:  0
 ik=   37/ 512 spin=  1 done by mpi rank:  0
 ik=   38/ 512 spin=  1 done by mpi rank:  0
 ik=   39/ 512 spin=  1 done by mpi rank:  0
 ik=   42/ 512 spin=  1 done by mpi rank:  0
 ik=   43/ 512 spin=  1 done by mpi rank:  0
 ik=   60/ 512 spin=  1 done by mpi rank:  0
 ik=   61/ 512 spin=  1 done by mpi rank:  0
 ik=   62/ 512 spin=  1 done by mpi rank:  0
 ik=   63/ 512 spin=  1 done by mpi rank:  0
 ik=   66/ 512 spin=  1 done by mpi rank:  0
 ik=   67/ 512 spin=  1 done by mpi rank:  0
 ik=   84/ 512 spin=  1 done by mpi rank:  0
 ik=   85/ 512 spin=  1 done by mpi rank:  0
 ik=   86/ 512 spin=  1 done by mpi rank:  0
 ik=   87/ 512 spin=  1 done by mpi rank:  0
 ik=   90/ 512 spin=  1 done by mpi rank:  0
 ik=   91/ 512 spin=  1 done by mpi rank:  0
 ik=  108/ 512 spin=  1 done by mpi rank:  0
 ik=  109/ 512 spin=  1 done by mpi rank:  0
 ik=  110/ 512 spin=  1 done by mpi rank:  0
 ik=  111/ 512 spin=  1 done by mpi rank:  0
 ik=  114/ 512 spin=  1 done by mpi rank:  0
 ik=  115/ 512 spin=  1 done by mpi rank:  0
 ik=  132/ 512 spin=  1 done by mpi rank:  0
 ik=  133/ 512 spin=  1 done by mpi rank:  0
 ik=  134/ 512 spin=  1 done by mpi rank:  0
 ik=  135/ 512 spin=  1 done by mpi rank:  0
 ik=  138/ 512 spin=  1 done by mpi rank:  0
 ik=  139/ 512 spin=  1 done by mpi rank:  0
 ik=  156/ 512 spin=  1 done by mpi rank:  0
 ik=  157/ 512 spin=  1 done by mpi rank:  0
 ik=  158/ 512 spin=  1 done by mpi rank:  0
 ik=  168/ 512 spin=  1 done by mpi rank:  0
 ik=  169/ 512 spin=  1 done by mpi rank:  0
 ik=  174/ 512 spin=  1 done by mpi rank:  0
 ik=  175/ 512 spin=  1 done by mpi rank:  0
 ik=  176/ 512 spin=  1 done by mpi rank:  0
 ik=  177/ 512 spin=  1 done by mpi rank:  0
 ik=  180/ 512 spin=  1 done by mpi rank:  0
 ik=  181/ 512 spin=  1 done by mpi rank:  0
 ik=  198/ 512 spin=  1 done by mpi rank:  0
 ik=  199/ 512 spin=  1 done by mpi rank:  0
 ik=  200/ 512 spin=  1 done by mpi rank:  0
 ik=  201/ 512 spin=  1 done by mpi rank:  0
 ik=  204/ 512 spin=  1 done by mpi rank:  0
 ik=  205/ 512 spin=  1 done by mpi rank:  0
 ik=  222/ 512 spin=  1 done by mpi rank:  0
 ik=  223/ 512 spin=  1 done by mpi rank:  0
 ik=  224/ 512 spin=  1 done by mpi rank:  0
 ik=  225/ 512 spin=  1 done by mpi rank:  0
 ik=  228/ 512 spin=  1 done by mpi rank:  0
 ik=  229/ 512 spin=  1 done by mpi rank:  0
 ik=  246/ 512 spin=  1 done by mpi rank:  0
 ik=  247/ 512 spin=  1 done by mpi rank:  0
 ik=  248/ 512 spin=  1 done by mpi rank:  0
 ik=  258/ 512 spin=  1 done by mpi rank:  0
 ik=  259/ 512 spin=  1 done by mpi rank:  0
 ik=  264/ 512 spin=  1 done by mpi rank:  0
 ik=  265/ 512 spin=  1 done by mpi rank:  0
 ik=  266/ 512 spin=  1 done by mpi rank:  0
 ik=  267/ 512 spin=  1 done by mpi rank:  0
 ik=  270/ 512 spin=  1 done by mpi rank:  0
 ik=  271/ 512 spin=  1 done by mpi rank:  0
 ik=  288/ 512 spin=  1 done by mpi rank:  0
 ik=  289/ 512 spin=  1 done by mpi rank:  0
 ik=  290/ 512 spin=  1 done by mpi rank:  0
 ik=  300/ 512 spin=  1 done by mpi rank:  0
 ik=  303/ 512 spin=  1 done by mpi rank:  0
 ik=  304/ 512 spin=  1 done by mpi rank:  0
[...]
    Omega [eV] SigC [eV]
...

-68.6392 15.4408
-68.3892 17.0374
-68.1392 13.0796
-67.8892 12.4074
-67.6392 15.6030
-67.3892 14.8073
-67.1392 13.0912
-66.8892 14.5400
-66.6392 14.2769

 k =    0.000   0.000   0.000
 Band     E0 <VxcDFT>   SigX SigC(E0)      Z dSigC/dE  Sig(E)    E-E0       E
    1 -67.639 -34.369 -58.261  15.603   0.607  -0.648 -39.398  -5.029 -72.668
    1   0.000   0.000   0.000  -0.582   0.000   0.000  -0.353  -0.353  -0.353
    2 -34.392 -32.315 -45.902   6.447   0.840  -0.191 -38.309  -5.995 -40.387
    2   0.000   0.000   0.000   0.008   0.000   0.000   0.007   0.007   0.007
    3 -34.392 -32.315 -45.902   6.447   0.840  -0.191 -38.309  -5.995 -40.387
    3   0.000   0.000   0.000   0.008   0.000   0.000   0.007   0.007   0.007
    4 -34.392 -32.315 -45.902   6.447   0.840  -0.191 -38.309  -5.995 -40.387
    4   0.000   0.000   0.000   0.008   0.000   0.000   0.007   0.007   0.007
    5 -12.466 -18.530 -30.741   8.864   0.670  -0.492 -20.774  -2.244 -14.710
    5   0.000   0.000   0.000  -0.051   0.000   0.000  -0.034  -0.034  -0.034
    6   4.719 -20.115 -25.576   3.399   0.805  -0.242 -21.776  -1.661   3.057
    6   0.000   0.000   0.000  -0.000   0.000   0.000  -0.000  -0.000  -0.000
    7   4.719 -20.115 -25.576   3.399   0.805  -0.242 -21.776  -1.661   3.057
    7   0.000   0.000   0.000  -0.000   0.000   0.000  -0.000  -0.000  -0.000
    8   4.719 -20.115 -25.576   3.399   0.805  -0.242 -21.776  -1.661   3.057
    8   0.000   0.000   0.000  -0.000   0.000   0.000  -0.000  -0.000  -0.000
    9   9.480 -13.473  -8.943  -3.668   0.854  -0.171 -12.737   0.736  10.216
    9   0.000   0.000   0.000   0.000   0.000   0.000   0.000   0.000   0.000
   10  20.674  -9.582  -3.693  -4.727   0.865  -0.156  -8.577   1.005  21.679
   10   0.000   0.000   0.000   0.001   0.000   0.000   0.001   0.001   0.001
   11  20.674  -9.582  -3.693  -4.727   0.865  -0.156  -8.577   1.005  21.679
   11   0.000   0.000   0.000   0.001   0.000   0.000   0.001   0.001   0.001
   12  20.674  -9.582  -3.693  -4.727   0.865  -0.156  -8.577   1.005  21.679
   12   0.000   0.000   0.000   0.001   0.000   0.000   0.001   0.001   0.001

 E^0_gap          4.761
 E^GW_gap         7.158
 DeltaE^GW_gap    2.397


--- !WARNING
src_file: m_dyson_solver.F90
src_line: 231
message: |
    Values of Re Sig_c are not linear 
    band index = 1 spin|component = 1
    root mean square=      0.050884880250328
    estimated slope =     -0.844660215420227
    Omega [eV] SigC [eV]
...

-68.6278 15.4367
-68.3778 17.1370
-68.1278 12.9364
-67.8778 12.8692
-67.6278 15.7567
-67.3778 14.8548
-67.1278 12.3610
-66.8778 14.9019
-66.6278 13.7368

 k =    0.500   0.500   0.000
 Band     E0 <VxcDFT>   SigX SigC(E0)      Z dSigC/dE  Sig(E)    E-E0       E
    1 -67.628 -34.388 -58.281  15.757   0.542  -0.845 -38.799  -4.411 -72.038
    1   0.000   0.000   0.000  -0.725   0.000   0.000  -0.393  -0.393  -0.393
    2 -34.464 -32.169 -45.768   6.400   0.825  -0.212 -38.109  -5.940 -40.405
    2   0.000   0.000   0.000   0.077   0.000   0.000   0.064   0.064   0.064
    3 -34.421 -32.260 -45.851   6.437   0.845  -0.183 -38.306  -6.046 -40.466
    3   0.000   0.000   0.000   0.079   0.000   0.000   0.067   0.067   0.067
    4 -34.421 -32.260 -45.851   6.437   0.845  -0.183 -38.306  -6.046 -40.466
    4   0.000   0.000   0.000   0.079   0.000   0.000   0.067   0.067   0.067
    5 -10.927 -20.044 -32.071   8.734   0.686  -0.457 -22.305  -2.260 -13.187
    5   0.000   0.000   0.000  -0.044   0.000   0.000  -0.030  -0.030  -0.030
    6   0.683 -16.124 -22.705   3.840   0.809  -0.237 -18.341  -2.217  -1.534
    6   0.000   0.000   0.000   0.001   0.000   0.000   0.001   0.001   0.001
    7   3.386 -18.768 -24.699   3.594   0.805  -0.243 -20.649  -1.880   1.505
    7   0.000   0.000   0.000  -0.000   0.000   0.000  -0.000  -0.000  -0.000
    8   3.386 -18.768 -24.699   3.594   0.805  -0.243 -20.649  -1.880   1.505
    8   0.000   0.000   0.000  -0.000   0.000   0.000  -0.000  -0.000  -0.000
    9  13.945  -8.873  -3.885  -4.152   0.873  -0.146  -8.143   0.730  14.675
    9   0.000   0.000   0.000  -0.000   0.000   0.000  -0.000  -0.000  -0.000
   10  14.724 -11.999  -6.389  -4.454   0.866  -0.155 -10.997   1.002  15.726
   10   0.000   0.000   0.000   0.000   0.000   0.000   0.000   0.000   0.000
   11  17.801 -16.121  -8.951  -5.106   0.819  -0.222 -14.432   1.690  19.491
   11   0.000   0.000   0.000   0.001   0.000   0.000   0.001   0.001   0.001
   12  23.694 -14.397  -6.410  -5.893   0.816  -0.226 -12.688   1.709  25.403
   12   0.000   0.000   0.000  -0.003   0.000   0.000  -0.002  -0.002  -0.002
   13  23.694 -14.397  -6.410  -5.893   0.816  -0.226 -12.688   1.709  25.403
   13   0.000   0.000   0.000  -0.003   0.000   0.000  -0.002  -0.002  -0.002

 E^0_gap         10.559
 E^GW_gap        13.170
 DeltaE^GW_gap    2.611

- Creating netcdf file WITHOUT MPI-IO support: outdata_ac_DS2_SIGRES.nc
 dataset: 2 , wall: 20.63 [s] , cpu: 20.52 [s] <<< TIME

== END DATASET(S) ==============================================================
================================================================================
  
 -outvars: echo values of variables after computation  --------
 
 These variables are accessible in NetCDF format (outdata_ac_OUT.nc)

            acell      7.9614161978E+00  7.9614161978E+00  7.9614161978E+00 Bohr
              amu      2.43050000E+01  1.59994000E+01
             bdgw           1      12       1      12
           diemac      1.20000000E+01
             ecut      4.50000000E+01 Hartree
          ecuteps      1.20000000E+01 Hartree
         ecutsigx      4.50000000E+01 Hartree
          ecutwfn      4.50000000E+01 Hartree
           etotal1     0.0000000000E+00
           etotal2     0.0000000000E+00
            fcart1     0.0000000000E+00  0.0000000000E+00  0.0000000000E+00
                       0.0000000000E+00  0.0000000000E+00  0.0000000000E+00
            fcart2     0.0000000000E+00  0.0000000000E+00  0.0000000000E+00
                       0.0000000000E+00  0.0000000000E+00  0.0000000000E+00
-          fftalg         312
           getscr1          0
           getscr2         -1
           istwfk        1    0    0    0    1    0    0    0    0    0
                         0    0    0    0    0    0    0    0    0    0
                         1    0    0    0    0    0    0    0    0
              ixc          11
           jdtset        1    2
              kpt      0.00000000E+00  0.00000000E+00  0.00000000E+00
                       1.25000000E-01  0.00000000E+00  0.00000000E+00
                       2.50000000E-01  0.00000000E+00  0.00000000E+00
                       3.75000000E-01  0.00000000E+00  0.00000000E+00
                       5.00000000E-01  0.00000000E+00  0.00000000E+00
                       1.25000000E-01  1.25000000E-01  0.00000000E+00
                       2.50000000E-01  1.25000000E-01  0.00000000E+00
                       3.75000000E-01  1.25000000E-01  0.00000000E+00
                       5.00000000E-01  1.25000000E-01  0.00000000E+00
                      -3.75000000E-01  1.25000000E-01  0.00000000E+00
                      -2.50000000E-01  1.25000000E-01  0.00000000E+00
                      -1.25000000E-01  1.25000000E-01  0.00000000E+00
                       2.50000000E-01  2.50000000E-01  0.00000000E+00
                       3.75000000E-01  2.50000000E-01  0.00000000E+00
                       5.00000000E-01  2.50000000E-01  0.00000000E+00
                      -3.75000000E-01  2.50000000E-01  0.00000000E+00
                      -2.50000000E-01  2.50000000E-01  0.00000000E+00
                       3.75000000E-01  3.75000000E-01  0.00000000E+00
                       5.00000000E-01  3.75000000E-01  0.00000000E+00
                      -3.75000000E-01  3.75000000E-01  0.00000000E+00
                       5.00000000E-01  5.00000000E-01  0.00000000E+00
                       3.75000000E-01  2.50000000E-01  1.25000000E-01
                       5.00000000E-01  2.50000000E-01  1.25000000E-01
                      -3.75000000E-01  2.50000000E-01  1.25000000E-01
                       5.00000000E-01  3.75000000E-01  1.25000000E-01
                      -3.75000000E-01  3.75000000E-01  1.25000000E-01
                      -2.50000000E-01  3.75000000E-01  1.25000000E-01
                      -3.75000000E-01  5.00000000E-01  1.25000000E-01
                      -2.50000000E-01  5.00000000E-01  2.50000000E-01
            kptgw      0.00000000E+00  0.00000000E+00  0.00000000E+00
                       5.00000000E-01  5.00000000E-01  0.00000000E+00
         kptrlatt        8    0    0      0    8    0      0    0    8
          kptrlen      4.50365711E+01
P           mkmem           1
            natom           2
            nband         480
           ndtset           2
            ngfft          36      36      36
             nkpt          29
           nkptgw           2
           npweps         259
          npwsigx        1837
           npwwfn        1837
            nstep          50
             nsym          48
           ntypat           2
              occ      2.000000  2.000000  2.000000  2.000000  2.000000  2.000000
                       2.000000  2.000000  0.000000  0.000000  0.000000  0.000000
                       0.000000  0.000000  0.000000  0.000000  0.000000  0.000000
                       0.000000  0.000000  0.000000  0.000000  0.000000  0.000000
                       0.000000  0.000000  0.000000  0.000000  0.000000  0.000000
                       0.000000  0.000000  0.000000  0.000000  0.000000  0.000000
                       0.000000  0.000000  0.000000  0.000000  0.000000  0.000000
                       0.000000  0.000000  0.000000  0.000000  0.000000  0.000000
                       0.000000  0.000000  0.000000  0.000000  0.000000  0.000000
                       0.000000  0.000000  0.000000  0.000000  0.000000  0.000000
                       0.000000  0.000000  0.000000  0.000000  0.000000  0.000000
                       0.000000  0.000000  0.000000  0.000000  0.000000  0.000000
                       0.000000  0.000000  0.000000  0.000000  0.000000  0.000000
                       0.000000  0.000000  0.000000  0.000000  0.000000  0.000000
                       0.000000  0.000000  0.000000  0.000000  0.000000  0.000000
                       0.000000  0.000000  0.000000  0.000000  0.000000  0.000000
                       0.000000  0.000000  0.000000  0.000000  0.000000  0.000000
                       0.000000  0.000000  0.000000  0.000000  0.000000  0.000000
                       0.000000  0.000000  0.000000  0.000000  0.000000  0.000000
                       0.000000  0.000000  0.000000  0.000000  0.000000  0.000000
                       0.000000  0.000000  0.000000  0.000000  0.000000  0.000000
                       0.000000  0.000000  0.000000  0.000000  0.000000  0.000000
                       0.000000  0.000000  0.000000  0.000000  0.000000  0.000000
                       0.000000  0.000000  0.000000  0.000000  0.000000  0.000000
                       0.000000  0.000000  0.000000  0.000000  0.000000  0.000000
                       0.000000  0.000000  0.000000  0.000000  0.000000  0.000000
                       0.000000  0.000000  0.000000  0.000000  0.000000  0.000000
                       0.000000  0.000000  0.000000  0.000000  0.000000  0.000000
                       0.000000  0.000000  0.000000  0.000000  0.000000  0.000000
                       0.000000  0.000000  0.000000  0.000000  0.000000  0.000000
                       0.000000  0.000000  0.000000  0.000000  0.000000  0.000000
                       0.000000  0.000000  0.000000  0.000000  0.000000  0.000000
                       0.000000  0.000000  0.000000  0.000000  0.000000  0.000000
                       0.000000  0.000000  0.000000  0.000000  0.000000  0.000000
                       0.000000  0.000000  0.000000  0.000000  0.000000  0.000000
                       0.000000  0.000000  0.000000  0.000000  0.000000  0.000000
                       0.000000  0.000000  0.000000  0.000000  0.000000  0.000000
                       0.000000  0.000000  0.000000  0.000000  0.000000  0.000000
                       0.000000  0.000000  0.000000  0.000000  0.000000  0.000000
                       0.000000  0.000000  0.000000  0.000000  0.000000  0.000000
                       0.000000  0.000000  0.000000  0.000000  0.000000  0.000000
                       0.000000  0.000000  0.000000  0.000000  0.000000  0.000000
                       0.000000  0.000000  0.000000  0.000000  0.000000  0.000000
                       0.000000  0.000000  0.000000  0.000000  0.000000  0.000000
                       0.000000  0.000000  0.000000  0.000000  0.000000  0.000000
                       0.000000  0.000000  0.000000  0.000000  0.000000  0.000000
                       0.000000  0.000000  0.000000  0.000000  0.000000  0.000000
                       0.000000  0.000000  0.000000  0.000000  0.000000  0.000000
                       0.000000  0.000000  0.000000  0.000000  0.000000  0.000000
                       0.000000  0.000000  0.000000  0.000000  0.000000  0.000000
                       0.000000  0.000000  0.000000  0.000000  0.000000  0.000000
                       0.000000  0.000000  0.000000  0.000000  0.000000  0.000000
                       0.000000  0.000000  0.000000  0.000000  0.000000  0.000000
                       0.000000  0.000000  0.000000  0.000000  0.000000  0.000000
                       0.000000  0.000000  0.000000  0.000000  0.000000  0.000000
                       0.000000  0.000000  0.000000  0.000000  0.000000  0.000000
                       0.000000  0.000000  0.000000  0.000000  0.000000  0.000000
                       0.000000  0.000000  0.000000  0.000000  0.000000  0.000000
                       0.000000  0.000000  0.000000  0.000000  0.000000  0.000000
                       0.000000  0.000000  0.000000  0.000000  0.000000  0.000000
                       0.000000  0.000000  0.000000  0.000000  0.000000  0.000000
                       0.000000  0.000000  0.000000  0.000000  0.000000  0.000000
                       0.000000  0.000000  0.000000  0.000000  0.000000  0.000000
                       0.000000  0.000000  0.000000  0.000000  0.000000  0.000000
                       0.000000  0.000000  0.000000  0.000000  0.000000  0.000000
                       0.000000  0.000000  0.000000  0.000000  0.000000  0.000000
                       0.000000  0.000000  0.000000  0.000000  0.000000  0.000000
                       0.000000  0.000000  0.000000  0.000000  0.000000  0.000000
                       0.000000  0.000000  0.000000  0.000000  0.000000  0.000000
                       0.000000  0.000000  0.000000  0.000000  0.000000  0.000000
                       0.000000  0.000000  0.000000  0.000000  0.000000  0.000000
                       0.000000  0.000000  0.000000  0.000000  0.000000  0.000000
                       0.000000  0.000000  0.000000  0.000000  0.000000  0.000000
                       0.000000  0.000000  0.000000  0.000000  0.000000  0.000000
                       0.000000  0.000000  0.000000  0.000000  0.000000  0.000000
                       0.000000  0.000000  0.000000  0.000000  0.000000  0.000000
                       0.000000  0.000000  0.000000  0.000000  0.000000  0.000000
                       0.000000  0.000000  0.000000  0.000000  0.000000  0.000000
                       0.000000  0.000000  0.000000  0.000000  0.000000  0.000000
                       0.000000  0.000000  0.000000  0.000000  0.000000  0.000000
        optdriver1          3
        optdriver2          4
            rprim      0.0000000000E+00  5.0000000000E-01  5.0000000000E-01
                       5.0000000000E-01  0.0000000000E+00  5.0000000000E-01
                       5.0000000000E-01  5.0000000000E-01  0.0000000000E+00
          spgroup         225
           strten1     0.0000000000E+00  0.0000000000E+00  0.0000000000E+00
                       0.0000000000E+00  0.0000000000E+00  0.0000000000E+00
           strten2     0.0000000000E+00  0.0000000000E+00  0.0000000000E+00
                       0.0000000000E+00  0.0000000000E+00  0.0000000000E+00
           symrel      1  0  0   0  1  0   0  0  1      -1  0  0   0 -1  0   0  0 -1
                       0 -1  1   0 -1  0   1 -1  0       0  1 -1   0  1  0  -1  1  0
                      -1  0  0  -1  0  1  -1  1  0       1  0  0   1  0 -1   1 -1  0
                       0  1 -1   1  0 -1   0  0 -1       0 -1  1  -1  0  1   0  0  1
                      -1  0  0  -1  1  0  -1  0  1       1  0  0   1 -1  0   1  0 -1
                       0 -1  1   1 -1  0   0 -1  0       0  1 -1  -1  1  0   0  1  0
                       1  0  0   0  0  1   0  1  0      -1  0  0   0  0 -1   0 -1  0
                       0  1 -1   0  0 -1   1  0 -1       0 -1  1   0  0  1  -1  0  1
                      -1  0  1  -1  1  0  -1  0  0       1  0 -1   1 -1  0   1  0  0
                       0 -1  0   1 -1  0   0 -1  1       0  1  0  -1  1  0   0  1 -1
                       1  0 -1   0  0 -1   0  1 -1      -1  0  1   0  0  1   0 -1  1
                       0  1  0   0  0  1   1  0  0       0 -1  0   0  0 -1  -1  0  0
                       1  0 -1   0  1 -1   0  0 -1      -1  0  1   0 -1  1   0  0  1
                       0 -1  0   0 -1  1   1 -1  0       0  1  0   0  1 -1  -1  1  0
                      -1  0  1  -1  0  0  -1  1  0       1  0 -1   1  0  0   1 -1  0
                       0  1  0   1  0  0   0  0  1       0 -1  0  -1  0  0   0  0 -1
                       0  0 -1   0  1 -1   1  0 -1       0  0  1   0 -1  1  -1  0  1
                       1 -1  0   0 -1  1   0 -1  0      -1  1  0   0  1 -1   0  1  0
                       0  0  1   1  0  0   0  1  0       0  0 -1  -1  0  0   0 -1  0
                      -1  1  0  -1  0  0  -1  0  1       1 -1  0   1  0  0   1  0 -1
                       0  0  1   0  1  0   1  0  0       0  0 -1   0 -1  0  -1  0  0
                       1 -1  0   0 -1  0   0 -1  1      -1  1  0   0  1  0   0  1 -1
                       0  0 -1   1  0 -1   0  1 -1       0  0  1  -1  0  1   0 -1  1
                      -1  1  0  -1  0  1  -1  0  0       1 -1  0   1  0 -1   1  0  0
           timopt          -1
            typat      1  2
              wtk        0.00195    0.01563    0.01563    0.01563    0.00781    0.01172
                         0.04688    0.04688    0.04688    0.04688    0.04688    0.02344
                         0.01172    0.04688    0.04688    0.04688    0.02344    0.01172
                         0.04688    0.02344    0.00586    0.04688    0.09375    0.04688
                         0.04688    0.09375    0.04688    0.02344    0.01172
           xangst      0.0000000000E+00  0.0000000000E+00  0.0000000000E+00
                       2.1065000000E+00  2.1065000000E+00  2.1065000000E+00
            xcart      0.0000000000E+00  0.0000000000E+00  0.0000000000E+00
                       3.9807080989E+00  3.9807080989E+00  3.9807080989E+00
             xred      0.0000000000E+00  0.0000000000E+00  0.0000000000E+00
                       5.0000000000E-01  5.0000000000E-01  5.0000000000E-01
            znucl       12.00000    8.00000

================================================================================
  
 Proc.   0 individual time (sec): cpu=         90.3  wall=         90.7

 Calculation completed.
.Delivered   0 WARNINGs and   0 COMMENTs to log file.

--- !FinalSummary
program: abinit
version: 9.9.2
start_datetime: Fri Feb 17 10:33:43 2023
end_datetime: Fri Feb 17 10:35:14 2023
overall_cpu_time:       11597.5
overall_wall_time:       11606.3
exit_requested_by_user: no 
timelimit: 0
pseudos: 
    Mg  : d65d9c3e5a38003fc995d0911d5c6f77
    O   : abbcf0645b4a6d69360cd16bcad3e730
usepaw: 0
mpi_procs: 128
omp_threads: 1
num_warnings: 0
num_comments: 0
...
