
.Version 9.9.2 of ABINIT 
.(MPI version, prepared for a x86_64_linux_gnu11.2 computer) 

.Copyright (C) 1998-2022 ABINIT group . 
 ABINIT comes with ABSOLUTELY NO WARRANTY.
 It is free software, and you are welcome to redistribute it
 under certain conditions (GNU General Public License,
 see ~abinit/COPYING or http://www.gnu.org/copyleft/gpl.txt).

 ABINIT is a project of the Universite Catholique de Louvain,
 Corning Inc. and other collaborators, see ~abinit/doc/developers/contributors.txt .
 Please read https://docs.abinit.org/theory/acknowledgments for suggested
 acknowledgments of the ABINIT effort.
 For more information, see https://www.abinit.org .

.Starting date : Fri 17 Feb 2023.
- ( at 00h55 )
  
- input  file    -> run.abi
- output file    -> run.abo
- root for input  files -> indata_gs
- root for output files -> outdata_gs


 DATASET    1 : space group F-4 3 m (#216); Bravais cF (face-center cubic)
================================================================================
 Values of the parameters that define the memory need for DATASET  1.
     intxc =       0    ionmov =       0      iscf =       7    lmnmax =       6
     lnmax =       6     mgfft =      48  mpssoang =       3    mqgrid =    3001
     natom =       2  nloc_mem =       1    nspden =       1   nspinor =       1
    nsppol =       1      nsym =      24    n1xccc =    2501    ntypat =       2
    occopt =       1   xclevel =       2
-    mband =          18        mffmem =           1         mkmem =           1
       mpw =         584          nfft =       13824          nkpt =          29
================================================================================
P This job should need less than                       9.318 Mbytes of memory.
  Rough estimation (10% accuracy) of disk space for files :
_ WF disk file :     37.215 Mbytes ; DEN or POT disk file :      0.107 Mbytes.
================================================================================


 DATASET    2 : space group F-4 3 m (#216); Bravais cF (face-center cubic)
================================================================================
 Values of the parameters that define the memory need for DATASET  2.
     intxc =       0    ionmov =       0      iscf =       7    lmnmax =       6
     lnmax =       6     mgfft =      48  mpssoang =       3    mqgrid =    3001
     natom =       2  nloc_mem =       1    nspden =       1   nspinor =       1
    nsppol =       1      nsym =      24    n1xccc =    2501    ntypat =       2
    occopt =       1   xclevel =       2
-    mband =          15        mffmem =           1         mkmem =           1
       mpw =        4405          nfft =      110592          nkpt =          29
================================================================================
P This job should need less than                      37.740 Mbytes of memory.
  Rough estimation (10% accuracy) of disk space for files :
_ WF disk file :     29.241 Mbytes ; DEN or POT disk file :      0.846 Mbytes.
================================================================================

--------------------------------------------------------------------------------
------------- Echo of variables that govern the present computation ------------
--------------------------------------------------------------------------------
-
- outvars: echo of selected default values                                      
-   iomode0 =  0 , fftalg0 =312 , wfoptalg0 =  0
-
- outvars: echo of global parameters not present in the input file              
-  max_nthreads =    0
-
 -outvars: echo values of preprocessed input variables --------
-          iomode1          1
-          iomode2          0
            acell      1.0673173199E+01  1.0673173199E+01  1.0673173199E+01 Bohr
              amu      6.97230000E+01  7.49215900E+01
        autoparal1          1
        autoparal2          0
           bandpp1         18
           bandpp2          1
     densfor_pred1          6
     densfor_pred2          2
           diemac      1.20000000E+01
             ecut      4.50000000E+01 Hartree
-          fftalg         312
           getden1          0
           getden2         -1
           istwfk        1    0    0    0    1    0    0    0    0    0
                         0    0    0    0    0    0    0    0    0    0
                         1    0    0    0    0    0    0    0    0
              ixc          11
           jdtset        1    2
              kpt      0.00000000E+00  0.00000000E+00  0.00000000E+00
                       1.25000000E-01  0.00000000E+00  0.00000000E+00
                       2.50000000E-01  0.00000000E+00  0.00000000E+00
                       3.75000000E-01  0.00000000E+00  0.00000000E+00
                       5.00000000E-01  0.00000000E+00  0.00000000E+00
                       1.25000000E-01  1.25000000E-01  0.00000000E+00
                       2.50000000E-01  1.25000000E-01  0.00000000E+00
                       3.75000000E-01  1.25000000E-01  0.00000000E+00
                       5.00000000E-01  1.25000000E-01  0.00000000E+00
                      -3.75000000E-01  1.25000000E-01  0.00000000E+00
                      -2.50000000E-01  1.25000000E-01  0.00000000E+00
                      -1.25000000E-01  1.25000000E-01  0.00000000E+00
                       2.50000000E-01  2.50000000E-01  0.00000000E+00
                       3.75000000E-01  2.50000000E-01  0.00000000E+00
                       5.00000000E-01  2.50000000E-01  0.00000000E+00
                      -3.75000000E-01  2.50000000E-01  0.00000000E+00
                      -2.50000000E-01  2.50000000E-01  0.00000000E+00
                       3.75000000E-01  3.75000000E-01  0.00000000E+00
                       5.00000000E-01  3.75000000E-01  0.00000000E+00
                      -3.75000000E-01  3.75000000E-01  0.00000000E+00
                       5.00000000E-01  5.00000000E-01  0.00000000E+00
                       3.75000000E-01  2.50000000E-01  1.25000000E-01
                       5.00000000E-01  2.50000000E-01  1.25000000E-01
                      -3.75000000E-01  2.50000000E-01  1.25000000E-01
                       5.00000000E-01  3.75000000E-01  1.25000000E-01
                      -3.75000000E-01  3.75000000E-01  1.25000000E-01
                      -2.50000000E-01  3.75000000E-01  1.25000000E-01
                      -3.75000000E-01  5.00000000E-01  1.25000000E-01
                      -2.50000000E-01  5.00000000E-01  2.50000000E-01
         kptrlatt        8    0    0      0    8    0      0    0    8
          kptrlen      6.03765852E+01
P           mkmem           1
            natom           2
            nband1         18
            nband2         15
           ndtset           2
            ngfft          48      48      48
             nkpt          29
-           npfft1          8
-           npfft2          1
-        np_spkpt1         29
-        np_spkpt2          1
            nstep          50
             nsym          24
           ntypat           2
              occ1     2.000000  2.000000  2.000000  2.000000  2.000000  2.000000
                       2.000000  2.000000  2.000000  2.000000  2.000000  2.000000
                       2.000000  2.000000  0.000000  0.000000  0.000000  0.000000
              occ2     2.000000  2.000000  2.000000  2.000000  2.000000  2.000000
                       2.000000  2.000000  2.000000  2.000000  2.000000  2.000000
                       2.000000  2.000000  0.000000
        optdriver1          0
        optdriver2          6
           ortalg1         -2
           ortalg2          2
        paral_kgb1          1
        paral_kgb2          0
            rprim      0.0000000000E+00  5.0000000000E-01  5.0000000000E-01
                       5.0000000000E-01  0.0000000000E+00  5.0000000000E-01
                       5.0000000000E-01  5.0000000000E-01  0.0000000000E+00
          spgroup         216
           symrel      1  0  0   0  1  0   0  0  1       0 -1  1   0 -1  0   1 -1  0
                      -1  0  0  -1  0  1  -1  1  0       0  1 -1   1  0 -1   0  0 -1
                      -1  0  0  -1  1  0  -1  0  1       0 -1  1   1 -1  0   0 -1  0
                       1  0  0   0  0  1   0  1  0       0  1 -1   0  0 -1   1  0 -1
                      -1  0  1  -1  1  0  -1  0  0       0 -1  0   1 -1  0   0 -1  1
                       1  0 -1   0  0 -1   0  1 -1       0  1  0   0  0  1   1  0  0
                       1  0 -1   0  1 -1   0  0 -1       0 -1  0   0 -1  1   1 -1  0
                      -1  0  1  -1  0  0  -1  1  0       0  1  0   1  0  0   0  0  1
                       0  0 -1   0  1 -1   1  0 -1       1 -1  0   0 -1  1   0 -1  0
                       0  0  1   1  0  0   0  1  0      -1  1  0  -1  0  0  -1  0  1
                       0  0  1   0  1  0   1  0  0       1 -1  0   0 -1  0   0 -1  1
                       0  0 -1   1  0 -1   0  1 -1      -1  1  0  -1  0  1  -1  0  0
           timopt          -1
           tolvrs1     1.00000000E-08
           tolvrs2     0.00000000E+00
            typat      1  2
         wfoptalg1        114
         wfoptalg2          0
              wtk        0.00195    0.01563    0.01563    0.01563    0.00781    0.01172
                         0.04688    0.04688    0.04688    0.04688    0.04688    0.02344
                         0.01172    0.04688    0.04688    0.04688    0.02344    0.01172
                         0.04688    0.02344    0.00586    0.04688    0.09375    0.04688
                         0.04688    0.09375    0.04688    0.02344    0.01172
           xangst      0.0000000000E+00  0.0000000000E+00  0.0000000000E+00
                       1.4120000000E+00  1.4120000000E+00  1.4120000000E+00
            xcart      0.0000000000E+00  0.0000000000E+00  0.0000000000E+00
                       2.6682932996E+00  2.6682932996E+00  2.6682932996E+00
             xred      0.0000000000E+00  0.0000000000E+00  0.0000000000E+00
                       2.5000000000E-01  2.5000000000E-01  2.5000000000E-01
            znucl       31.00000   33.00000

================================================================================

 chkinp: Checking input parameters for consistency, jdtset=   1.

 chkinp: Checking input parameters for consistency, jdtset=   2.

================================================================================
== DATASET  1 ==================================================================
-   mpi_nproc: 232, omp_nthreads: -1 (-1 if OMP is not activated)


--- !DatasetInfo
iteration_state: {dtset: 1, }
dimensions: {natom: 2, nkpt: 29, mband: 18, nsppol: 1, nspinor: 1, nspden: 1, mpw: 584, }
cutoff_energies: {ecut:  45.0, pawecutdg:  -1.0, }
electrons: {nelect:   2.80000000E+01, charge:   0.00000000E+00, occopt:   1.00000000E+00, tsmear:   1.00000000E-02, }
meta: {optdriver: 0, ionmov: 0, optcell: 0, iscf: 7, paral_kgb: 1, }
...

 Exchange-correlation functional for the present dataset will be:
  GGA: Perdew-Burke-Ernzerhof functional - ixc=11
 Citation for XC functional:
  J.P.Perdew, K.Burke, M.Ernzerhof, PRL 77, 3865 (1996)

 Real(R)+Recip(G) space primitive vectors, cartesian coordinates (Bohr,Bohr^-1):
 R(1)=  0.0000000  5.3365866  5.3365866  G(1)= -0.0936928  0.0936928  0.0936928
 R(2)=  5.3365866  0.0000000  5.3365866  G(2)=  0.0936928 -0.0936928  0.0936928
 R(3)=  5.3365866  5.3365866  0.0000000  G(3)=  0.0936928  0.0936928 -0.0936928
 Unit cell volume ucvol=  3.0396297E+02 bohr^3
 Angles (23,13,12)=  6.00000000E+01  6.00000000E+01  6.00000000E+01 degrees

 getcut: wavevector=  0.0000  0.0000  0.0000  ngfft=  48  48  48
         ecut(hartree)=     45.000   => boxcut(ratio)=   2.10616

--- Pseudopotential description ------------------------------------------------
- pspini: atom type   1  psp file is Ga.psp8
- pspatm: opening atomic psp file    Ga.psp8
- Ga    ONCVPSP-3.2.3.1  r_core=   1.66857   1.75011   1.90252
- 31.00000  13.00000    170504                znucl, zion, pspdat
    8   11    2    4       600   0.00000      pspcod,pspxc,lmax,lloc,mmax,r2well
    5.99000000000000    5.00000000000000    0.00000000000000   rchrg,fchrg,qchrg
     nproj     2     2     2
     extension_switch     1
  pspatm : epsatm=   24.69408336
         --- l  ekb(1:nproj) -->
             0    7.029782    1.144675
             1    6.805229    1.288163
             2   -8.378254   -2.820764
 pspatm: atomic psp has been read  and splines computed

- pspini: atom type   2  psp file is As.psp8
- pspatm: opening atomic psp file    As.psp8
- As    ONCVPSP-3.2.3.1  r_core=   1.76603   1.70395   1.80867
- 33.00000  15.00000    170703                znucl, zion, pspdat
    8   11    2    4       600   0.00000      pspcod,pspxc,lmax,lloc,mmax,r2well
    5.99000000000000    5.00000000000000    0.00000000000000   rchrg,fchrg,qchrg
     nproj     2     2     2
     extension_switch     1
  pspatm : epsatm=   28.90894586
         --- l  ekb(1:nproj) -->
             0    8.305110    0.874814
             1    4.929784    0.754498
             2  -10.035573   -4.078419
 pspatm: atomic psp has been read  and splines computed

   1.50088482E+03                                ecore*ucvol(ha*bohr**3)
--------------------------------------------------------------------------------

_setup2: Arith. and geom. avg. npw (full set) are     579.311     579.306

================================================================================

--- !BeginCycle
iteration_state: {dtset: 1, }
solver: {iscf: 7, nstep: 50, nline: 4, wfoptalg: 114, }
tolerances: {tolvrs: 1.00E-08, }
...

     iter   Etot(hartree)      deltaE(h)  residm     vres2
 ETOT  1  -182.55097384458    -1.826E+02 6.709E-04 7.088E+01
 ETOT  2  -182.56297117370    -1.200E-02 6.840E-07 1.402E+01
 ETOT  3  -182.56433922146    -1.368E-03 6.778E-08 6.159E-02
 ETOT  4  -182.56434512068    -5.899E-06 2.448E-09 6.219E-03
 ETOT  5  -182.56434571367    -5.930E-07 8.561E-11 7.873E-04
 ETOT  6  -182.56434576219    -4.852E-08 2.237E-11 1.093E-05
 ETOT  7  -182.56434576349    -1.302E-09 8.670E-13 9.912E-07
 ETOT  8  -182.56434576358    -8.833E-11 2.488E-14 7.755E-09

 At SCF step    8       vres2   =  7.76E-09 < tolvrs=  1.00E-08 =>converged.

 Cartesian components of stress tensor (hartree/bohr^3)
  sigma(1 1)= -1.22807308E-04  sigma(3 2)=  0.00000000E+00
  sigma(2 2)= -1.22807308E-04  sigma(3 1)=  0.00000000E+00
  sigma(3 3)= -1.22807308E-04  sigma(2 1)=  0.00000000E+00


--- !ResultsGS
iteration_state: {dtset: 1, }
comment   : Summary of ground state results
lattice_vectors:
- [  0.0000000,   5.3365866,   5.3365866, ]
- [  5.3365866,   0.0000000,   5.3365866, ]
- [  5.3365866,   5.3365866,   0.0000000, ]
lattice_lengths: [   7.54707,    7.54707,    7.54707, ]
lattice_angles: [ 60.000,  60.000,  60.000, ] # degrees, (23, 13, 12)
lattice_volume:   3.0396297E+02
convergence: {deltae: -8.833E-11, res2:  7.755E-09, residm:  2.488E-14, diffor: null, }
etotal    :  -1.82564346E+02
entropy   :   0.00000000E+00
fermie    :   1.48648858E-01
cartesian_stress_tensor: # hartree/bohr^3
- [ -1.22807308E-04,   0.00000000E+00,   0.00000000E+00, ]
- [  0.00000000E+00,  -1.22807308E-04,   0.00000000E+00, ]
- [  0.00000000E+00,   0.00000000E+00,  -1.22807308E-04, ]
pressure_GPa:   3.6131E+00
xred      :
- [  0.0000E+00,   0.0000E+00,   0.0000E+00, Ga]
- [  2.5000E-01,   2.5000E-01,   2.5000E-01, As]
cartesian_forces: # hartree/bohr
- [ -1.76597121E-28,  -1.76597121E-28,   5.29791362E-28, ]
- [  1.76597121E-28,   1.76597121E-28,  -5.29791362E-28, ]
force_length_stats: {min:   5.85706389E-28, max:   5.85706389E-28, mean:   5.85706389E-28, }
...

 Integrated electronic density in atomic spheres:
 ------------------------------------------------
 Atom  Sphere_radius  Integrated_density
    1        2.00000         10.81314869
    2        2.00000         12.37077484
================================================================================

 ----iterations are completed or convergence reached----

 Mean square residual over all n,k,spin=   20.422E-17; max=  24.877E-15
 reduced coordinates (array xred) for    2 atoms
       0.000000000000      0.000000000000      0.000000000000
       0.250000000000      0.250000000000      0.250000000000
 rms dE/dt=  2.6656E-27; max dE/dt=  3.7697E-27; dE/dt below (all hartree)
    1      -0.000000000000     -0.000000000000      0.000000000000
    2       0.000000000000      0.000000000000      0.000000000000

 cartesian coordinates (angstrom) at end:
    1      0.00000000000000     0.00000000000000     0.00000000000000
    2      1.41200000000000     1.41200000000000     1.41200000000000

 cartesian forces (hartree/bohr) at end:
    1     -0.00000000000000    -0.00000000000000     0.00000000000000
    2      0.00000000000000     0.00000000000000    -0.00000000000000
 frms,max,avg= 3.3815774E-28 5.2979136E-28   0.000E+00  0.000E+00  0.000E+00 h/b

 cartesian forces (eV/Angstrom) at end:
    1     -0.00000000000000    -0.00000000000000     0.00000000000000
    2      0.00000000000000     0.00000000000000    -0.00000000000000
 frms,max,avg= 1.7388769E-26 2.7242965E-26   0.000E+00  0.000E+00  0.000E+00 e/A
 length scales= 10.673173198538 10.673173198538 10.673173198538 bohr
              =  5.648000000000  5.648000000000  5.648000000000 angstroms
 prteigrs : about to open file outdata_gs_DS1_EIG
 Fermi (or HOMO) energy (hartree) =   0.14865   Average Vxc (hartree)=  -0.36716
 Eigenvalues (hartree) for nkpt=  29  k points:
 kpt#   1, nband= 18, wtk=  0.00195, kpt=  0.0000  0.0000  0.0000 (reduced coord)
  -1.14556   -1.14556   -1.14556   -1.14521   -1.14521   -0.39594   -0.39594   -0.39594
  -0.39307   -0.39307   -0.31985    0.14865    0.14865    0.14865    0.16844    0.28626
   0.28626    0.28626
 prteigrs : prtvol=0 or 1, do not print more k-points.


--- !EnergyTerms
iteration_state     : {dtset: 1, }
comment             : Components of total free energy in Hartree
kinetic             :  1.38902474243548E+02
hartree             :  5.72991745329113E+01
xc                  : -4.47223251321272E+01
Ewald energy        : -9.92765059692852E+01
psp_core            :  4.93772256881962E+00
local_psp           : -1.49236707436910E+02
non_local_psp       : -9.04681785705367E+01
total_energy        : -1.82564345763580E+02
total_energy_eV     : -4.96782849172254E+03
band_energy         : -1.57696239418611E+01
...


 Cartesian components of stress tensor (hartree/bohr^3)
  sigma(1 1)= -1.22807308E-04  sigma(3 2)=  0.00000000E+00
  sigma(2 2)= -1.22807308E-04  sigma(3 1)=  0.00000000E+00
  sigma(3 3)= -1.22807308E-04  sigma(2 1)=  0.00000000E+00

-Cartesian components of stress tensor (GPa)         [Pressure=  3.6131E+00 GPa]
- sigma(1 1)= -3.61311513E+00  sigma(3 2)=  0.00000000E+00
- sigma(2 2)= -3.61311513E+00  sigma(3 1)=  0.00000000E+00
- sigma(3 3)= -3.61311513E+00  sigma(2 1)=  0.00000000E+00

================================================================================
== DATASET  2 ==================================================================
-   mpi_nproc: 256, omp_nthreads: -1 (-1 if OMP is not activated)


--- !DatasetInfo
iteration_state: {dtset: 2, }
dimensions: {natom: 2, nkpt: 29, mband: 15, nsppol: 1, nspinor: 1, nspden: 1, mpw: 4405, }
cutoff_energies: {ecut:  45.0, pawecutdg:  -1.0, }
electrons: {nelect:   2.80000000E+01, charge:   0.00000000E+00, occopt:   1.00000000E+00, tsmear:   1.00000000E-02, }
meta: {optdriver: 6, }
...

 mkfilename : getden/=0, take file _DEN from output of DATASET   1.

 Exchange-correlation functional for the present dataset will be:
  GGA: Perdew-Burke-Ernzerhof functional - ixc=11
 Citation for XC functional:
  J.P.Perdew, K.Burke, M.Ernzerhof, PRL 77, 3865 (1996)

.Using single precision arithmetic; gwpc =  4

- Reading GS density from: outdata_gs_DS1_DEN



--------------------------------------------------------------------------------

 Total charge density [el/Bohr^3]
)     Maximum=    2.4085E+00  at reduced coord.    0.2708    0.2708    0.3125
)     Minimum=    5.2503E-05  at reduced coord.    0.0000    0.0000    0.0000
   Integrated=    2.8000E+01

 === KS gaps after direct diagonalization ===
 Direct band gap semiconductor
 Fundamental gap:     0.538 (eV)
   VBM:     4.045 (eV) at k: [ 0.0000E+00,  0.0000E+00,  0.0000E+00]
   CBM:     4.583 (eV) at k: [ 0.0000E+00,  0.0000E+00,  0.0000E+00]
 Direct gap:         0.538 (eV) at k: [ 0.0000E+00,  0.0000E+00,  0.0000E+00]


== END DATASET(S) ==============================================================
================================================================================
  
 -outvars: echo values of variables after computation  --------
-          iomode1          1
-          iomode2          0
            acell      1.0673173199E+01  1.0673173199E+01  1.0673173199E+01 Bohr
              amu      6.97230000E+01  7.49215900E+01
        autoparal1          1
        autoparal2          0
           bandpp1         18
           bandpp2          1
     densfor_pred1          6
     densfor_pred2          2
           diemac      1.20000000E+01
             ecut      4.50000000E+01 Hartree
           etotal1    -1.8256434576E+02
           etotal2     0.0000000000E+00
            fcart1    -1.7659712076E-28 -1.7659712076E-28  5.2979136227E-28
                       1.7659712076E-28  1.7659712076E-28 -5.2979136227E-28
            fcart2     0.0000000000E+00  0.0000000000E+00  0.0000000000E+00
                       0.0000000000E+00  0.0000000000E+00  0.0000000000E+00
-          fftalg         312
           getden1          0
           getden2         -1
           istwfk        1    0    0    0    1    0    0    0    0    0
                         0    0    0    0    0    0    0    0    0    0
                         1    0    0    0    0    0    0    0    0
              ixc          11
           jdtset        1    2
              kpt      0.00000000E+00  0.00000000E+00  0.00000000E+00
                       1.25000000E-01  0.00000000E+00  0.00000000E+00
                       2.50000000E-01  0.00000000E+00  0.00000000E+00
                       3.75000000E-01  0.00000000E+00  0.00000000E+00
                       5.00000000E-01  0.00000000E+00  0.00000000E+00
                       1.25000000E-01  1.25000000E-01  0.00000000E+00
                       2.50000000E-01  1.25000000E-01  0.00000000E+00
                       3.75000000E-01  1.25000000E-01  0.00000000E+00
                       5.00000000E-01  1.25000000E-01  0.00000000E+00
                      -3.75000000E-01  1.25000000E-01  0.00000000E+00
                      -2.50000000E-01  1.25000000E-01  0.00000000E+00
                      -1.25000000E-01  1.25000000E-01  0.00000000E+00
                       2.50000000E-01  2.50000000E-01  0.00000000E+00
                       3.75000000E-01  2.50000000E-01  0.00000000E+00
                       5.00000000E-01  2.50000000E-01  0.00000000E+00
                      -3.75000000E-01  2.50000000E-01  0.00000000E+00
                      -2.50000000E-01  2.50000000E-01  0.00000000E+00
                       3.75000000E-01  3.75000000E-01  0.00000000E+00
                       5.00000000E-01  3.75000000E-01  0.00000000E+00
                      -3.75000000E-01  3.75000000E-01  0.00000000E+00
                       5.00000000E-01  5.00000000E-01  0.00000000E+00
                       3.75000000E-01  2.50000000E-01  1.25000000E-01
                       5.00000000E-01  2.50000000E-01  1.25000000E-01
                      -3.75000000E-01  2.50000000E-01  1.25000000E-01
                       5.00000000E-01  3.75000000E-01  1.25000000E-01
                      -3.75000000E-01  3.75000000E-01  1.25000000E-01
                      -2.50000000E-01  3.75000000E-01  1.25000000E-01
                      -3.75000000E-01  5.00000000E-01  1.25000000E-01
                      -2.50000000E-01  5.00000000E-01  2.50000000E-01
         kptrlatt        8    0    0      0    8    0      0    0    8
          kptrlen      6.03765852E+01
P           mkmem           1
            natom           2
            nband1         18
            nband2         15
           ndtset           2
            ngfft          48      48      48
             nkpt          29
-           npfft1          8
-           npfft2          1
-        np_spkpt1         29
-        np_spkpt2          1
            nstep          50
             nsym          24
           ntypat           2
              occ1     2.000000  2.000000  2.000000  2.000000  2.000000  2.000000
                       2.000000  2.000000  2.000000  2.000000  2.000000  2.000000
                       2.000000  2.000000  0.000000  0.000000  0.000000  0.000000
              occ2     2.000000  2.000000  2.000000  2.000000  2.000000  2.000000
                       2.000000  2.000000  2.000000  2.000000  2.000000  2.000000
                       2.000000  2.000000  0.000000
        optdriver1          0
        optdriver2          6
           ortalg1         -2
           ortalg2          2
        paral_kgb1          1
        paral_kgb2          0
            rprim      0.0000000000E+00  5.0000000000E-01  5.0000000000E-01
                       5.0000000000E-01  0.0000000000E+00  5.0000000000E-01
                       5.0000000000E-01  5.0000000000E-01  0.0000000000E+00
          spgroup         216
           strten1    -1.2280730793E-04 -1.2280730793E-04 -1.2280730793E-04
                       0.0000000000E+00  0.0000000000E+00  0.0000000000E+00
           strten2     0.0000000000E+00  0.0000000000E+00  0.0000000000E+00
                       0.0000000000E+00  0.0000000000E+00  0.0000000000E+00
           symrel      1  0  0   0  1  0   0  0  1       0 -1  1   0 -1  0   1 -1  0
                      -1  0  0  -1  0  1  -1  1  0       0  1 -1   1  0 -1   0  0 -1
                      -1  0  0  -1  1  0  -1  0  1       0 -1  1   1 -1  0   0 -1  0
                       1  0  0   0  0  1   0  1  0       0  1 -1   0  0 -1   1  0 -1
                      -1  0  1  -1  1  0  -1  0  0       0 -1  0   1 -1  0   0 -1  1
                       1  0 -1   0  0 -1   0  1 -1       0  1  0   0  0  1   1  0  0
                       1  0 -1   0  1 -1   0  0 -1       0 -1  0   0 -1  1   1 -1  0
                      -1  0  1  -1  0  0  -1  1  0       0  1  0   1  0  0   0  0  1
                       0  0 -1   0  1 -1   1  0 -1       1 -1  0   0 -1  1   0 -1  0
                       0  0  1   1  0  0   0  1  0      -1  1  0  -1  0  0  -1  0  1
                       0  0  1   0  1  0   1  0  0       1 -1  0   0 -1  0   0 -1  1
                       0  0 -1   1  0 -1   0  1 -1      -1  1  0  -1  0  1  -1  0  0
           timopt          -1
           tolvrs1     1.00000000E-08
           tolvrs2     0.00000000E+00
            typat      1  2
         wfoptalg1        114
         wfoptalg2          0
              wtk        0.00195    0.01563    0.01563    0.01563    0.00781    0.01172
                         0.04688    0.04688    0.04688    0.04688    0.04688    0.02344
                         0.01172    0.04688    0.04688    0.04688    0.02344    0.01172
                         0.04688    0.02344    0.00586    0.04688    0.09375    0.04688
                         0.04688    0.09375    0.04688    0.02344    0.01172
           xangst      0.0000000000E+00  0.0000000000E+00  0.0000000000E+00
                       1.4120000000E+00  1.4120000000E+00  1.4120000000E+00
            xcart      0.0000000000E+00  0.0000000000E+00  0.0000000000E+00
                       2.6682932996E+00  2.6682932996E+00  2.6682932996E+00
             xred      0.0000000000E+00  0.0000000000E+00  0.0000000000E+00
                       2.5000000000E-01  2.5000000000E-01  2.5000000000E-01
            znucl       31.00000   33.00000

================================================================================

 Test the timer : 
  a combined call timab(*,1,tsec) + timab(*,2,tsec) is 
- CPU time =    6.0531E-07 sec,    Wall time =    6.0534E-07 sec

- Total cpu        time (s,m,h):      21075.3      351.25      5.854
- Total wall clock time (s,m,h):      21180.2      353.00      5.883
-
- For major independent code sections, cpu and wall times (sec),
-  as well as % of the time and number of calls for node 0
-
-<BEGIN_TIMER mpi_nprocs = 232, omp_nthreads = 1, mpi_rank = 0>
- cpu_time =           87.8, wall_time =           91.3
-
- routine                            cpu     %          wall     %      number of calls Gflops    Speedup Efficacity
-                                                                        (-1=no count)
- ugb_from_diago                   22.220   0.1        22.339   0.1              1      -1.00        0.99       0.99
- fourwf%(pot)                      1.227   0.0         1.227   0.0            172      -1.00        1.00       1.00
- pspini                            0.748   0.0         0.749   0.0              2      -1.00        1.00       1.00
- nonlop(apply)                     0.350   0.0         0.351   0.0            172      -1.00        1.00       1.00
- abinit(2)                         0.137   0.0         0.148   0.0              1      -1.00        0.93       0.93
- timing timab                      0.118   0.0         0.118   0.0             14      -1.00        1.00       1.00
- fourdp                            0.109   0.0         0.109   0.0            125      -1.00        1.00       1.00
- newkpt(excl. rwwf   )             0.099   0.0         0.099   0.0             -1      -1.00        1.00       1.00
- xc:pot/=fourdp                    0.064   0.0         0.064   0.0             10      -1.00        1.00       1.00
- vtorho(MPI)                       0.044   0.0         0.044   0.0              8      -1.00        1.00       1.00
- invars2                           0.036   0.0         0.036   0.0              2      -1.00        1.00       1.00
- vtowfk(contrib)                   0.035   0.0         0.035   0.0              8      -1.00        1.00       1.00
- others (143)                      0.112   0.0         0.113   0.0             -1      -1.00        0.99       0.99
-<END_TIMER>
-
- subtotal                         25.299   0.1        25.432   0.1                                  0.99       0.99

- For major independent code sections, cpu and wall times (sec),
- as well as % of the total time and number of calls 

-<BEGIN_TIMER mpi_nprocs = 232, omp_nthreads = 1, mpi_rank = world>
- cpu_time =       21075.3, wall_time =       21180.2
-
- routine                            cpu     %          wall     %      number of calls Gflops    Speedup Efficacity
-                                                                        (-1=no count)
- ugb_from_diago                 6121.729  29.0      6125.338  28.9            232      -1.00        1.00       1.00
- fourwf%(pot)                    284.588   1.4       284.667   1.3          40557      -1.00        1.00       1.00
- pspini                          173.164   0.8       173.462   0.8            464      -1.00        1.00       1.00
- nonlop(apply)                    82.559   0.4        82.614   0.4          40557      -1.00        1.00       1.00
- timing timab                     26.999   0.1        27.001   0.1           3248      -1.00        1.00       1.00
- fourdp                           22.829   0.1        22.882   0.1          29000      -1.00        1.00       1.00
- newkpt(excl. rwwf   )            20.805   0.1        20.808   0.1           -232      -1.00        1.00       1.00
- xc:pot/=fourdp                   14.476   0.1        14.547   0.1           2320      -1.00        1.00       1.00
- vtorho(MPI)                      12.887   0.1        12.905   0.1           1856      -1.00        1.00       1.00
- abinit(2)                        11.795   0.1        12.130   0.1            232      -1.00        0.97       0.97
- vtowfk(contrib)                   7.965   0.0         7.970   0.0           1856      -1.00        1.00       1.00
- invars2                           7.912   0.0         7.913   0.0            464      -1.00        1.00       1.00
- ewald                             5.279   0.0         5.281   0.0            464      -1.00        1.00       1.00
- symrhg(no FFT)                    4.554   0.0         4.558   0.0           1856      -1.00        1.00       1.00
- mkcore                            2.558   0.0         2.559   0.0            928      -1.00        1.00       1.00
- kpgsph                            2.538   0.0         2.541   0.0          27608      -1.00        1.00       1.00
- stress                            2.527   0.0         2.528   0.0            232      -1.00        1.00       1.00
- getghc-other                      2.482   0.0         2.419   0.0           -232      -1.00        1.03       1.03
- nonlop(forces)                    2.397   0.0         2.400   0.0           2320      -1.00        1.00       1.00
- ewald2 (+vdw_dftd)                1.674   0.0         1.675   0.0            232      -1.00        1.00       1.00
- scfcv-scprqt                      1.438   0.0         1.480   0.0           1856      -1.00        0.97       0.97
- forces                            1.355   0.0         1.372   0.0            232      -1.00        0.99       0.99
- setsym                            0.881   0.0         0.881   0.0            232      -1.00        1.00       1.00
- mkffnl                            0.288   0.0         0.290   0.0            696      -1.00        0.99       0.99
- prep_bandfft_tabs                 0.129   0.0         0.132   0.0            464      -1.00        0.98       0.98
- vtowfk(ssdiag)                    0.078   0.0         0.080   0.0           -232      -1.00        0.98       0.98
- vtowfk  (1)                       0.037   0.0         0.037   0.0           1856      -1.00        1.00       1.00
- others (128)                      0.008   0.0         0.008   0.0             -1      -1.00        0.99       0.99
-<END_TIMER>

- subtotal                       6815.930  32.3      6820.478  32.2                                  1.00       1.00

 Partitioning of abinit
- abinit                        21075.260 100.0     21180.240 100.0            232                   1.00       1.00
 
- abinit(1)                        47.825   0.2        54.789   0.3            232                   0.87       0.87
- abinit(2)                        11.795   0.1        12.130   0.1            232                   0.97       0.97
- indefo+macroin+invars2m           7.974   0.0         7.977   0.0            232                   1.00       1.00
- abinit(4)                        58.993   0.3        63.737   0.3            232                   0.93       0.93
- abinit(5)                        33.738   0.2        33.794   0.2            232                   1.00       1.00
- driver                        20934.650  99.3     21028.646  99.3            232                   1.00       1.00
- timing timab                     26.999   0.1        27.001   0.1           3248                   1.00       1.00

- subtotal                      21075.260 100.0     21180.240 100.0                                  1.00       1.00

 Partitioning of driver
- driver                        20934.650  99.3     21028.646  99.3            232                   1.00       1.00
 
- driver(bef. select case)         14.432   0.1        35.611   0.2            464                   0.41       0.41
- (other)                       20919.898  99.3     20992.696  99.1             -1                   1.00       1.00

- subtotal                      20934.650  99.3     21028.646  99.3                                  1.00       1.00

 Partitioning of gstateimg+gstate
- gstateimg                       613.031   2.9       656.577   3.1            232                   0.93       0.93
 
- gstate(1)                        27.211   0.1        27.355   0.1            464                   0.99       0.99
- gstate(pspini)                  173.227   0.8       173.529   0.8            232                   1.00       1.00
- gstate(...scfcv)                255.876   1.2       292.250   1.4            232                   0.88       0.88
- gstate(prtwf)                   153.500   0.7       160.141   0.8            232                   0.96       0.96

- subtotal                        612.949   2.9       656.493   3.1                                  0.93       0.93

 Partitioning of scfcv_core
- scfcv_core                      254.895   1.2       291.177   1.4            232                   0.88       0.88
 
- scfcv_core(iniloop, setv          7.408   0.0         7.461   0.0           1856                   0.99       0.99
- scfcv_core(vtorho(f))           205.334   1.0       225.753   1.1           1856                   0.91       0.91
- scfcv_core(rhotov)               16.893   0.1        16.913   0.1           1856                   1.00       1.00
- scfcv_core(mix pot)              13.823   0.1        29.127   0.1           1624                   0.47       0.47
- scfcv_core(afterscfloop)          7.075   0.0         7.208   0.0            232                   0.98       0.98

- subtotal                        254.895   1.2       291.177   1.4                                  0.88       0.88

 Partitioning of rhotov
- rhotov                           16.791   0.1        16.796   0.1           1856                   1.00       1.00
 
- rhotov(rhotoxc)                  12.253   0.1        12.253   0.1           1856                   1.00       1.00

- subtotal                         16.791   0.1        16.796   0.1                                  1.00       1.00

 Partitioning of vtorho
- vtorho                          205.249   1.0       225.658   1.1           1856                   0.91       0.91
 
- vtowfk                          180.347   0.9       200.645   0.9           1856                   0.90       0.90
- vtorho(MPI)                      12.887   0.1        12.905   0.1           1856                   1.00       1.00
- vtorho(mkrho 2)                   7.835   0.0         7.899   0.0           3712                   0.99       0.99

- subtotal                        205.249   1.0       225.658   1.1                                  0.91       0.91

 Partitioning of vtowfk
- vtowfk                          180.347   0.9       200.645   0.9           1856                   0.90       0.90
 
- vtowfk(2)                       172.343   0.8       192.636   0.9           -232                   0.89       0.89
- prep_fourwf%vtow                  7.745   0.0         7.745   0.0           1856                   1.00       1.00

- subtotal                        180.347   0.9       200.645   0.9                                  0.90       0.90

 Partitioning of getghc
- getghc                          369.629   1.8       369.701   1.7          40557                   1.00       1.00
 
- fourwf%getghc                   284.588   1.4       284.667   1.3          40557                   1.00       1.00
- nonlop%getghc                    82.559   0.4        82.614   0.4          40557                   1.00       1.00

- subtotal                        369.629   1.8       369.701   1.7                                  1.00       1.00

 Partitioning of fourwf (upwards partitioning)
- fourwf                          292.043   1.4       292.127   1.4          66541                   1.00       1.00
 
- fourwf%getghc                   284.588   1.4       284.667   1.3          40557                   1.00       1.00
- fourwf%prep_four                  7.455   0.0         7.460   0.0          25984                   1.00       1.00

- subtotal                        292.043   1.4       292.127   1.4                                  1.00       1.00

 Partitioning of prep_getghc
- prep_getghc                     102.873   0.5       102.894   0.5          11600                   1.00       1.00
 
- prep_getghc(alltoall)             4.946   0.0         4.952   0.0          23200                   1.00       1.00
- prep_getghc(getghc - 2 )         93.626   0.4        93.641   0.4          11600                   1.00       1.00

- subtotal                        102.873   0.5       102.894   0.5                                  1.00       1.00

 Partitioning of prep_fourwf
- prep_fourwf                       7.745   0.0         7.745   0.0           1856                   1.00       1.00
 
- fourwf%prep_four                  7.455   0.0         7.460   0.0          25984                   1.00       1.00

- subtotal                          7.609   0.0         7.615   0.0                                  1.00       1.00

 Partitioning of prep_nonlop
- prep_nonlop                       4.592   0.0         4.609   0.0           2552                   1.00       1.00
 

- subtotal                          4.592   0.0         4.609   0.0                                  1.00       1.00

 Partitioning of inwffil
- inwffil                          20.840   0.1        20.844   0.1            232                   1.00       1.00
 
- inwffil(call newkpt)             20.832   0.1        20.836   0.1            232                   1.00       1.00

- subtotal                         20.839   0.1        20.844   0.1                                  1.00       1.00

 Partitioning of newkpt
- newkpt                           20.832   0.1        20.836   0.1            232                   1.00       1.00
 
- newkpt(after loop   )            20.697   0.1        20.699   0.1            232                   1.00       1.00

- subtotal                         20.805   0.1        20.808   0.1                                  1.00       1.00

 Partitioning of newvtr
- newvtr                           13.602   0.1        28.874   0.1           1624                   0.47       0.47
 
- newvtr(aft. prcref_PMA)          10.314   0.0        25.578   0.1           1624                   0.40       0.40

- subtotal                         13.602   0.1        28.874   0.1                                  0.47       0.47

 Partitioning of  fourdp (upwards partitioning)
- fourdp                           22.829   0.1        22.882   0.1          29000                   1.00       1.00
 
- fourdp%(other)                   22.829   0.1        22.882   0.1          29000                   1.00       1.00

- subtotal                         22.829   0.1        22.882   0.1                                  1.00       1.00

 Partitioning of afterscfloop
- afterscfloop                      6.861   0.0         6.967   0.0            232                   0.98       0.98
 
- afterscfloop(forstr)              6.670   0.0         6.772   0.0            232                   0.98       0.98

- subtotal                          6.860   0.0         6.967   0.0                                  0.98       0.98

 Partitioning of forstr
- forstr                            6.556   0.0         6.647   0.0            232                   0.99       0.99
 

- subtotal                          6.555   0.0         6.647   0.0                                  0.99       0.99

 Partitioning of forstrnps
- forstrnps                         2.366   0.0         2.384   0.0            232                   0.99       0.99
 

- subtotal                          2.366   0.0         2.384   0.0                                  0.99       0.99

 Partitioning of outscfcv
- outscfcv                          1.021   0.0         1.253   0.0            232                   0.81       0.81
 

- subtotal                          0.980   0.0         1.211   0.0                                  0.81       0.81

 Partitioning of lobpcgwf2 core engine
- lobpcgwf2                       172.266   0.8       192.558   0.9           2320                   0.89       0.89
 
- lobpcg_run                      167.957   0.8       188.241   0.9           2320                   0.89       0.89
- lobpcg_Bortho                    28.536   0.1        40.888   0.2          11600                   0.70       0.70
- lobpcg_RayleighRitz              33.035   0.2        40.954   0.2          11600                   0.81       0.81
- lobpcg_run@getAX_BX             104.194   0.5       104.223   0.5          11600                   1.00       1.00
- lobpcg_RayleighRitz@hegv         15.582   0.1        23.488   0.1          11600                   0.66       0.66

- subtotal                        351.814   1.7       400.319   1.9                                  0.88       0.88

 Partitioning of low-level xgBlock type
- xgBlock_potrf                     8.979   0.0        21.328   0.1          11600                   0.42       0.42
 
- xgBlock_trsm                     12.217   0.1        12.236   0.1          34800                   1.00       1.00
- xgBlock_gemm                     22.704   0.1        22.816   0.1         127600                   1.00       1.00
- xgBlock_hegvx                    15.203   0.1        23.121   0.1           9280                   0.66       0.66

- subtotal                         52.509   0.2        60.584   0.3                                  0.87       0.87
-
-Synchronisation (=leave_test) and MPI calls 
- communic.MPI                     36.439   0.2        36.513   0.2          13688                   1.00       1.00
-
- forstrnps:synchr                  0.337   0.0         0.337   0.0            464                   1.00       1.00
- alltoall%back_wf                  3.910   0.0         3.904   0.0         234784                   1.00       1.00
- alltoall%forw_wf                  0.467   0.0         0.438   0.0         208800                   1.07       1.07
- subtotal                          4.714   0.0         4.679   0.0                                  1.01       1.01

 Additional information
- timana(1)                         0.288   0.0         0.297   0.0            232                   0.97       0.97
- total timab                      27.745   0.1        27.747   0.1       46389968                   1.00       1.00
- fourwf                          292.043   1.4       292.127   1.4          66541                   1.00       1.00
- mklocl(2)                         0.354   0.0         0.354   0.0            232                   1.00       1.00
- nonlop(total)                    86.689   0.4        86.763   0.4          43109                   1.00       1.00
- xc:fourdp                        12.011   0.1        11.981   0.1          18560                   1.00       1.00
- read_rho                        178.024   0.8       178.130   0.8            232                   1.00       1.00

 timana : in multi dataset mode, the more detailed analysis is not done.

================================================================================

 Suggested references for the acknowledgment of ABINIT usage.

 The users of ABINIT have little formal obligations with respect to the ABINIT group
 (those specified in the GNU General Public License, http://www.gnu.org/copyleft/gpl.txt).
 However, it is common practice in the scientific literature,
 to acknowledge the efforts of people that have made the research possible.
 In this spirit, please find below suggested citations of work written by ABINIT developers,
 corresponding to implementations inside of ABINIT that you have used in the present run.
 Note also that it will be of great value to readers of publications presenting these results,
 to read papers enabling them to understand the theoretical formalism and details
 of the ABINIT implementation.
 For information on why they are suggested, see also https://docs.abinit.org/theory/acknowledgments.
-
- [1] Large scale ab initio calculations based on three levels of parallelization
- F. Bottin, S. Leroux, A. Knyazev, G. Zerah, Comput. Mat. Science 42, 329, (2008).
- Comment: in case LOBPCG algorithm is used (wfoptalg=4/14/114).
- Strong suggestion to cite this paper in your publications.
- This paper is also available at http://www.arxiv.org/abs/0707.3405
- DOI and bibtex: see https://docs.abinit.org/theory/bibliography/#bottin2008
-
- [2] The Abinit project: Impact, environment and recent developments.
- Computer Phys. Comm. 248, 107042 (2020).
- X.Gonze, B. Amadon, G. Antonius, F.Arnardi, L.Baguet, J.-M.Beuken,
- J.Bieder, F.Bottin, J.Bouchet, E.Bousquet, N.Brouwer, F.Bruneval,
- G.Brunin, T.Cavignac, J.-B. Charraud, Wei Chen, M.Cote, S.Cottenier,
- J.Denier, G.Geneste, Ph.Ghosez, M.Giantomassi, Y.Gillet, O.Gingras,
- D.R.Hamann, G.Hautier, Xu He, N.Helbig, N.Holzwarth, Y.Jia, F.Jollet,
- W.Lafargue-Dit-Hauret, K.Lejaeghere, M.A.L.Marques, A.Martin, C.Martins,
- H.P.C. Miranda, F.Naccarato, K. Persson, G.Petretto, V.Planes, Y.Pouillon,
- S.Prokhorenko, F.Ricci, G.-M.Rignanese, A.H.Romero, M.M.Schmitt, M.Torrent,
- M.J.van Setten, B.Van Troeye, M.J.Verstraete, G.Zerah and J.W.Zwanzig
- Comment: the fifth generic paper describing the ABINIT project.
- Note that a version of this paper, that is not formatted for Computer Phys. Comm. 
- is available at https://www.abinit.org/sites/default/files/ABINIT20.pdf .
- The licence allows the authors to put it on the Web.
- DOI and bibtex: see https://docs.abinit.org/theory/bibliography/#gonze2020
-
- [3] Optimized norm-conserving Vanderbilt pseudopotentials.
- D.R. Hamann, Phys. Rev. B 88, 085117 (2013).
- Comment: Some pseudopotential generated using the ONCVPSP code were used.
- DOI and bibtex: see https://docs.abinit.org/theory/bibliography/#hamann2013
-
- [4] ABINIT: Overview, and focus on selected capabilities
- J. Chem. Phys. 152, 124102 (2020).
- A. Romero, D.C. Allan, B. Amadon, G. Antonius, T. Applencourt, L.Baguet,
- J.Bieder, F.Bottin, J.Bouchet, E.Bousquet, F.Bruneval,
- G.Brunin, D.Caliste, M.Cote,
- J.Denier, C. Dreyer, Ph.Ghosez, M.Giantomassi, Y.Gillet, O.Gingras,
- D.R.Hamann, G.Hautier, F.Jollet, G. Jomard,
- A.Martin, 
- H.P.C. Miranda, F.Naccarato, G.Petretto, N.A. Pike, V.Planes,
- S.Prokhorenko, T. Rangel, F.Ricci, G.-M.Rignanese, M.Royo, M.Stengel, M.Torrent,
- M.J.van Setten, B.Van Troeye, M.J.Verstraete, J.Wiktor, J.W.Zwanziger, and X.Gonze.
- Comment: a global overview of ABINIT, with focus on selected capabilities .
- Note that a version of this paper, that is not formatted for J. Chem. Phys 
- is available at https://www.abinit.org/sites/default/files/ABINIT20_JPC.pdf .
- The licence allows the authors to put it on the Web.
- DOI and bibtex: see https://docs.abinit.org/theory/bibliography/#romero2020
-
- [5] Recent developments in the ABINIT software package.
- Computer Phys. Comm. 205, 106 (2016).
- X.Gonze, F.Jollet, F.Abreu Araujo, D.Adams, B.Amadon, T.Applencourt,
- C.Audouze, J.-M.Beuken, J.Bieder, A.Bokhanchuk, E.Bousquet, F.Bruneval
- D.Caliste, M.Cote, F.Dahm, F.Da Pieve, M.Delaveau, M.Di Gennaro,
- B.Dorado, C.Espejo, G.Geneste, L.Genovese, A.Gerossier, M.Giantomassi,
- Y.Gillet, D.R.Hamann, L.He, G.Jomard, J.Laflamme Janssen, S.Le Roux,
- A.Levitt, A.Lherbier, F.Liu, I.Lukacevic, A.Martin, C.Martins,
- M.J.T.Oliveira, S.Ponce, Y.Pouillon, T.Rangel, G.-M.Rignanese,
- A.H.Romero, B.Rousseau, O.Rubel, A.A.Shukri, M.Stankovski, M.Torrent,
- M.J.Van Setten, B.Van Troeye, M.J.Verstraete, D.Waroquier, J.Wiktor,
- B.Xu, A.Zhou, J.W.Zwanziger.
- Comment: the fourth generic paper describing the ABINIT project.
- Note that a version of this paper, that is not formatted for Computer Phys. Comm. 
- is available at https://www.abinit.org/sites/default/files/ABINIT16.pdf .
- The licence allows the authors to put it on the Web.
- DOI and bibtex: see https://docs.abinit.org/theory/bibliography/#gonze2016
-
- Proc.   0 individual time (sec): cpu=         87.8  wall=         91.3

================================================================================

 Calculation completed.
.Delivered   0 WARNINGs and   0 COMMENTs to log file.
+Overall time at end (sec) : cpu=      23274.7  wall=      23382.4
