  ABINIT 9.9.2
  
-instrng: 27 lines of input have been read from file globals

-instrng: 28 lines of input have been read from file run.abi


.Version 9.9.2 of ABINIT 
.(MPI version, prepared for a x86_64_linux_gnu11.2 computer) 

.Copyright (C) 1998-2022 ABINIT group . 
 ABINIT comes with ABSOLUTELY NO WARRANTY.
 It is free software, and you are welcome to redistribute it
 under certain conditions (GNU General Public License,
 see ~abinit/COPYING or http://www.gnu.org/copyleft/gpl.txt).

 ABINIT is a project of the Universite Catholique de Louvain,
 Corning Inc. and other collaborators, see ~abinit/doc/developers/contributors.txt .
 Please read https://docs.abinit.org/theory/acknowledgments for suggested
 acknowledgments of the ABINIT effort.
 For more information, see https://www.abinit.org .

.Starting date : Fri 17 Feb 2023.
- ( at 10h25 )
  

 ++++++++++++++++++++++++++++++++++++++++++++++++++++++++++++++++++++++++++++++

 === Build Information === 
  Version       : 9.9.2
  Build target  : x86_64_linux_gnu11.2
  Build date    : 20230216

 === Compiler Suite === 
  C compiler       : gnu11.2
  C++ compiler     : gnu11.2
  Fortran compiler : gnu11.2
  CFLAGS           : -g -O2
  CXXFLAGS         : -g -O2 -mtune=native -march=native
  FCFLAGS          : -g -O2 -fbacktrace -ffree-line-length-none -fallow-argument-mismatc ...
  FC_LDFLAGS       : 

 === Optimizations === 
  Debug level        : basic
  Optimization level : standard
  Architecture       : amd_epyc

 === Multicore === 
  Parallel build : /opt/cray/pe/mpich/8.1.12/ofi/gnu/9.1
  Parallel I/O   : 
  openMP support : no
  GPU support    : 

 === Connectors / Fallbacks === 
  LINALG flavor  : netlib
  FFT flavor     : fftw3
  HDF5           : yes
  NetCDF         : yes
  NetCDF Fortran : yes
  LibXC          : yes
  Wannier90      : no

 === Experimental features === 
  Exports             : 
  GW double-precision : no

 ++++++++++++++++++++++++++++++++++++++++++++++++++++++++++++++++++++++++++++++


 ++++++++++++++++++++++++++++++++++++++++++++++++++++++++++++++++++++++++++++++
 Default optimizations:
   --- None ---


 ++++++++++++++++++++++++++++++++++++++++++++++++++++++++++++++++++++++++++++++


 ++++++++++++++++++++++++++++++++++++++++++++++++++++++++++++++++++++++++++++++
 CPP options activated during the build:

                    CC_GNU                   CXX_GNU                    FC_GNU
 
 HAVE_FC_ALLOCATABLE_DT...             HAVE_FC_ASYNC         HAVE_FC_BACKTRACE
 
  HAVE_FC_COMMAND_ARGUMENT      HAVE_FC_COMMAND_LINE        HAVE_FC_CONTIGUOUS
 
           HAVE_FC_CPUTIME              HAVE_FC_EXIT             HAVE_FC_FLUSH
 
             HAVE_FC_GAMMA            HAVE_FC_GETENV   HAVE_FC_IEEE_ARITHMETIC
 
   HAVE_FC_IEEE_EXCEPTIONS          HAVE_FC_INT_QUAD             HAVE_FC_IOMSG
 
     HAVE_FC_ISO_C_BINDING  HAVE_FC_ISO_FORTRAN_2008        HAVE_FC_LONG_LINES
 
        HAVE_FC_MOVE_ALLOC  HAVE_FC_ON_THE_FLY_SHAPE           HAVE_FC_PRIVATE
 
         HAVE_FC_PROTECTED           HAVE_FC_SHIFTLR         HAVE_FC_STREAM_IO
 
            HAVE_FC_SYSTEM                HAVE_FFTW3            HAVE_FFTW3_MPI
 
          HAVE_FORTRAN2003                 HAVE_HDF5        HAVE_LIBPAW_ABINIT
 
      HAVE_LIBTETRA_ABINIT                HAVE_LIBXC        HAVE_LINALG_GEMM3M
 
     HAVE_LINALG_SCALAPACK                  HAVE_MPI                 HAVE_MPI2
 
       HAVE_MPI_IALLGATHER       HAVE_MPI_IALLREDUCE        HAVE_MPI_IALLTOALL
 
       HAVE_MPI_IALLTOALLV           HAVE_MPI_IBCAST         HAVE_MPI_IGATHERV
 
        HAVE_MPI_INTEGER16               HAVE_MPI_IO HAVE_MPI_TYPE_CREATE_S...
 
               HAVE_NETCDF       HAVE_NETCDF_FORTRAN             HAVE_OS_LINUX
 
         HAVE_TIMER_ABINIT                                                      
 ++++++++++++++++++++++++++++++++++++++++++++++++++++++++++++++++++++++++++++++

- input  file    -> run.abi
- output file    -> run.abo
- root for input  files -> indata_gs
- root for output files -> outdata_gs

-instrng: 27 lines of input have been read from file globals

-instrng: 28 lines of input have been read from file run.abi

 For atom type 1, psp file is Mg.psp8
 For atom type 2, psp file is O.psp8
  read the values zionpsp= 10.0 , pspcod=   8 , lmax=   1
  read the values zionpsp=  6.0 , pspcod=   8 , lmax=   2

 inpspheads: deduce mpsang = 3, n1xccc = 2501.

======================================================= 
 invars1m : enter jdtset= 1

 symlatt: the Bravais lattice is cF (face-centered cubic)
  xred   is defined in input file
 ingeo: takes atomic coordinates from input array xred

--- !COMMENT
src_file: m_ingeo.F90
src_line: 890
message: |
    The tolerance on symmetries =   1.000E-05 is bigger than 1.0e-8.
    In order to avoid spurious effects, the atomic coordinates have been
    symmetrized before storing them in the dataset internal variable.
    So, do not be surprised by the fact that your input variables (xcart, xred, ...)
    do not correspond exactly to the ones echoed by ABINIT, the latter being used to do the calculations.
    This is not a problem per se.
    Still, in order to avoid this symmetrization (e.g. for specific debugging/development), decrease tolsym to 1.0e-8 or lower,
    or (much preferred) use input primitive vectors that are accurate to better than 1.0e-8.
    This message will only be printed once, even if there are other datasets where tolsym is bigger than 1.0e-8.
...


 symlatt: the Bravais lattice is cF (face-centered cubic)

 symlatt: the Bravais lattice is cF (face-centered cubic)
 symspgr: spgroup= 225  Fm -3 m   (=Oh^5)
 symspgr: optical characteristics = isotropic

======================================================= 
 invars1m : enter jdtset= 2

 symlatt: the Bravais lattice is cF (face-centered cubic)
  xred   is defined in input file
 ingeo: takes atomic coordinates from input array xred

 symlatt: the Bravais lattice is cF (face-centered cubic)

 symlatt: the Bravais lattice is cF (face-centered cubic)
 symspgr: spgroup= 225  Fm -3 m   (=Oh^5)
 symspgr: optical characteristics = isotropic
 invars2: read the value of fband=  2.00000000E+00 from input file.
 invars2: take the default value of fband=  1.25000000E-01
 getmpw sequential formula gave: 1819

 ====================================================================================================
 Searching for all possible proc distributions for this input with #CPUs<=128:

 ~~~~~~~~~~~~~~~~~~~~~~~~~~~~~~~~~~~~~~~~~~~~~~~~~~~~~~~~~~~~~~~~~~~~~~~~~~~~~
 |       np_spkpt|       npfft|      npband|      bandpp|  #MPI(proc)|    WEIGHT|
 |    1<<   29|    1<<   16|    1<<   12|    1<<   12|    1<<  128|  <=   128|
 ~~~~~~~~~~~~~~~~~~~~~~~~~~~~~~~~~~~~~~~~~~~~~~~~~~~~~~~~~~~~~~~~~~~~~~~~~~~~~
 |          29|           2|           2|           6|         116|   105.981|
 |          29|           2|           2|           2|         116|   104.897|
 |          29|           2|           2|           1|         116|   103.283|
 |          29|           4|           1|          12|         116|   102.133|
 |          29|           4|           1|           6|         116|   101.868|
 |          29|           4|           1|           4|         116|   101.604|
 |          16|           2|           4|           1|         128|   101.370|
 |          16|           8|           1|          12|         128|   101.187|
 |          29|           4|           1|           2|         116|   100.810|
 |          29|           1|           4|           1|         116|   100.450|
 ~~~~~~~~~~~~~~~~~~~~~~~~~~~~~~~~~~~~~~~~~~~~~~~~~~~~~~~~~~~~~~~~~~~~~~~~~~~~~
 Only the best possible choices for nproc are printed...

 >>> Possible (best) choices for the number of bands (nband) are:
     with: np_spkpt=29 npfft=2
     nband=    12 using    116 CPUs =   116 MPI x  1 threads (npband=    2)
 >>> The present nband value (    12) seems to be a good choice!
 ====================================================================================================


 For input ecut=  4.500000E+01 best grid ngfft=      36      36      36
       max ecut=  5.045034E+01

 ==== FFT mesh ====
  FFT mesh divisions ........................    36   36   36
  Augmented FFT divisions ...................    37   37   36
  FFT algorithm .............................   312
  FFT cache size ............................    16
 Relative gap for number of plane waves between process (%):  4.03
 Relative gap for number of plane waves between process (%):  1.42
 Relative gap for number of plane waves between process (%):  0.11
 Relative gap for number of plane waves between process (%):  0.65
 Relative gap for number of plane waves between process (%):  0.67
 Relative gap for number of plane waves between process (%):  1.75
 Relative gap for number of plane waves between process (%):  0.44
 Relative gap for number of plane waves between process (%):  1.09
 Relative gap for number of plane waves between process (%):  0.11
 Relative gap for number of plane waves between process (%):  0.55
 Relative gap for number of plane waves between process (%):  0.33
 Relative gap for number of plane waves between process (%):  0.98
 Relative gap for number of plane waves between process (%):  0.44
 Relative gap for number of plane waves between process (%):  0.33
 Relative gap for number of plane waves between process (%):  0.55
 Relative gap for number of plane waves between process (%):  0.44
 Relative gap for number of plane waves between process (%):  0.88
 Relative gap for number of plane waves between process (%):  1.34
 Relative gap for number of plane waves between process (%):  0.00
 Relative gap for number of plane waves between process (%):  0.66
 Relative gap for number of plane waves between process (%):  0.00
 Relative gap for number of plane waves between process (%):  0.33
 Relative gap for number of plane waves between process (%):  0.55
 Relative gap for number of plane waves between process (%):  0.00
 Relative gap for number of plane waves between process (%):  0.11
 Relative gap for number of plane waves between process (%):  0.33
 Relative gap for number of plane waves between process (%):  0.33
 Relative gap for number of plane waves between process (%):  0.00
 Relative gap for number of plane waves between process (%):  0.00
 getmpw: optimal value of mpw= 469

--- !WARNING
src_file: m_mpinfo.F90
src_line: 2337
message: |
    nproc_spkpt= 128 >= nkpt= 29* nsppol= 1
    The number of processors is larger than nkpt*nsppol. This is a WASTE.
     Ignore this warning if this is not a GS run
...

 For input ecut=  4.500000E+01 best grid ngfft=      36      36      36
       max ecut=  5.045034E+01

 ==== FFT mesh ====
  FFT mesh divisions ........................    36   36   36
  Augmented FFT divisions ...................    37   37   36
  FFT algorithm .............................   312
  FFT cache size ............................    16
 getmpw: optimal value of mpw= 1840

 DATASET    1 : space group Fm -3 m (#225); Bravais cF (face-center cubic)

 getdim_nloc: deduce lmnmax  =  13, lnmax  =   5,
                      lmnmaxso=  13, lnmaxso=   5.
memory: analysis of memory needs
================================================================================
 Values of the parameters that define the memory need for DATASET  1.
     intxc =       0    ionmov =       0      iscf =       7    lmnmax =       5
     lnmax =       5     mgfft =      36  mpssoang =       3    mqgrid =    3001
     natom =       2  nloc_mem =       1    nspden =       1   nspinor =       1
    nsppol =       1      nsym =      48    n1xccc =    2501    ntypat =       2
    occopt =       1   xclevel =       2
-    mband =          12        mffmem =           1         mkmem =           1
       mpw =         469          nfft =       23328          nkpt =          29
================================================================================
P This job should need less than                       9.959 Mbytes of memory.
  Rough estimation (10% accuracy) of disk space for files :
_ WF disk file :      4.983 Mbytes ; DEN or POT disk file :      0.180 Mbytes.
================================================================================

 Biggest array : f_fftgr(disk), with      2.8497 MBytes.
 memana : allocated an array of      2.850 Mbytes, for testing purposes.
 memana: allocated       9.959Mbytes, for testing purposes. 
 The job will continue.

 DATASET    2 : space group Fm -3 m (#225); Bravais cF (face-center cubic)

 getdim_nloc: deduce lmnmax  =  13, lnmax  =   5,
                      lmnmaxso=  13, lnmaxso=   5.
memory: analysis of memory needs
================================================================================
 Values of the parameters that define the memory need for DATASET  2.
     intxc =       0    ionmov =       0      iscf =       7    lmnmax =       5
     lnmax =       5     mgfft =      36  mpssoang =       3    mqgrid =    3001
     natom =       2  nloc_mem =       1    nspden =       1   nspinor =       1
    nsppol =       1      nsym =      48    n1xccc =    2501    ntypat =       2
    occopt =       1   xclevel =       2
-    mband =           9        mffmem =           1         mkmem =           1
       mpw =        1840          nfft =       46656          nkpt =          29
================================================================================
P This job should need less than                      16.340 Mbytes of memory.
  Rough estimation (10% accuracy) of disk space for files :
_ WF disk file :      7.330 Mbytes ; DEN or POT disk file :      0.358 Mbytes.
================================================================================

 Biggest array : f_fftgr(disk), with      5.6973 MBytes.
--------------------------------------------------------------------------------
------------- Echo of variables that govern the present computation ------------
--------------------------------------------------------------------------------
-
- outvars: echo of selected default values                                      
-   iomode0 =  0 , fftalg0 =312 , wfoptalg0 =  0
-
- outvars: echo of global parameters not present in the input file              
-  max_nthreads =    0
-
 -outvars: echo values of preprocessed input variables --------
 
 These variables are accessible in NetCDF format (outdata_gs_OUT.nc)

-          iomode1          1
-          iomode2          0
            acell      7.9614161978E+00  7.9614161978E+00  7.9614161978E+00 Bohr
              amu      2.43050000E+01  1.59994000E+01
        autoparal1          1
        autoparal2          0
           bandpp1          6
           bandpp2          1
     densfor_pred1          6
     densfor_pred2          2
           diemac      1.20000000E+01
             ecut      4.50000000E+01 Hartree
-          fftalg         312
           getden1          0
           getden2         -1
           istwfk        1    0    0    0    1    0    0    0    0    0
                         0    0    0    0    0    0    0    0    0    0
                         1    0    0    0    0    0    0    0    0
              ixc          11
           jdtset        1    2
              kpt      0.00000000E+00  0.00000000E+00  0.00000000E+00
                       1.25000000E-01  0.00000000E+00  0.00000000E+00
                       2.50000000E-01  0.00000000E+00  0.00000000E+00
                       3.75000000E-01  0.00000000E+00  0.00000000E+00
                       5.00000000E-01  0.00000000E+00  0.00000000E+00
                       1.25000000E-01  1.25000000E-01  0.00000000E+00
                       2.50000000E-01  1.25000000E-01  0.00000000E+00
                       3.75000000E-01  1.25000000E-01  0.00000000E+00
                       5.00000000E-01  1.25000000E-01  0.00000000E+00
                      -3.75000000E-01  1.25000000E-01  0.00000000E+00
                      -2.50000000E-01  1.25000000E-01  0.00000000E+00
                      -1.25000000E-01  1.25000000E-01  0.00000000E+00
                       2.50000000E-01  2.50000000E-01  0.00000000E+00
                       3.75000000E-01  2.50000000E-01  0.00000000E+00
                       5.00000000E-01  2.50000000E-01  0.00000000E+00
                      -3.75000000E-01  2.50000000E-01  0.00000000E+00
                      -2.50000000E-01  2.50000000E-01  0.00000000E+00
                       3.75000000E-01  3.75000000E-01  0.00000000E+00
                       5.00000000E-01  3.75000000E-01  0.00000000E+00
                      -3.75000000E-01  3.75000000E-01  0.00000000E+00
                       5.00000000E-01  5.00000000E-01  0.00000000E+00
                       3.75000000E-01  2.50000000E-01  1.25000000E-01
                       5.00000000E-01  2.50000000E-01  1.25000000E-01
                      -3.75000000E-01  2.50000000E-01  1.25000000E-01
                       5.00000000E-01  3.75000000E-01  1.25000000E-01
                      -3.75000000E-01  3.75000000E-01  1.25000000E-01
                      -2.50000000E-01  3.75000000E-01  1.25000000E-01
                      -3.75000000E-01  5.00000000E-01  1.25000000E-01
                      -2.50000000E-01  5.00000000E-01  2.50000000E-01
         kptrlatt        8    0    0      0    8    0      0    0    8
          kptrlen      4.50365711E+01
P           mkmem           1
            natom           2
            nband1         12
            nband2          9
           ndtset           2
            ngfft          36      36      36
             nkpt          29
-          npband1          2
-          npband2          1
-           npfft1          2
-           npfft2          1
-        np_spkpt1         29
-        np_spkpt2          1
            nstep          50
             nsym          48
           ntypat           2
              occ1     2.000000  2.000000  2.000000  2.000000  2.000000  2.000000
                       2.000000  2.000000  0.000000  0.000000  0.000000  0.000000
              occ2     2.000000  2.000000  2.000000  2.000000  2.000000  2.000000
                       2.000000  2.000000  0.000000
        optdriver1          0
        optdriver2          6
           ortalg1         -2
           ortalg2          2
        paral_kgb1          1
        paral_kgb2          0
            rprim      0.0000000000E+00  5.0000000000E-01  5.0000000000E-01
                       5.0000000000E-01  0.0000000000E+00  5.0000000000E-01
                       5.0000000000E-01  5.0000000000E-01  0.0000000000E+00
          spgroup         225
           symrel      1  0  0   0  1  0   0  0  1      -1  0  0   0 -1  0   0  0 -1
                       0 -1  1   0 -1  0   1 -1  0       0  1 -1   0  1  0  -1  1  0
                      -1  0  0  -1  0  1  -1  1  0       1  0  0   1  0 -1   1 -1  0
                       0  1 -1   1  0 -1   0  0 -1       0 -1  1  -1  0  1   0  0  1
                      -1  0  0  -1  1  0  -1  0  1       1  0  0   1 -1  0   1  0 -1
                       0 -1  1   1 -1  0   0 -1  0       0  1 -1  -1  1  0   0  1  0
                       1  0  0   0  0  1   0  1  0      -1  0  0   0  0 -1   0 -1  0
                       0  1 -1   0  0 -1   1  0 -1       0 -1  1   0  0  1  -1  0  1
                      -1  0  1  -1  1  0  -1  0  0       1  0 -1   1 -1  0   1  0  0
                       0 -1  0   1 -1  0   0 -1  1       0  1  0  -1  1  0   0  1 -1
                       1  0 -1   0  0 -1   0  1 -1      -1  0  1   0  0  1   0 -1  1
                       0  1  0   0  0  1   1  0  0       0 -1  0   0  0 -1  -1  0  0
                       1  0 -1   0  1 -1   0  0 -1      -1  0  1   0 -1  1   0  0  1
                       0 -1  0   0 -1  1   1 -1  0       0  1  0   0  1 -1  -1  1  0
                      -1  0  1  -1  0  0  -1  1  0       1  0 -1   1  0  0   1 -1  0
                       0  1  0   1  0  0   0  0  1       0 -1  0  -1  0  0   0  0 -1
                       0  0 -1   0  1 -1   1  0 -1       0  0  1   0 -1  1  -1  0  1
                       1 -1  0   0 -1  1   0 -1  0      -1  1  0   0  1 -1   0  1  0
                       0  0  1   1  0  0   0  1  0       0  0 -1  -1  0  0   0 -1  0
                      -1  1  0  -1  0  0  -1  0  1       1 -1  0   1  0  0   1  0 -1
                       0  0  1   0  1  0   1  0  0       0  0 -1   0 -1  0  -1  0  0
                       1 -1  0   0 -1  0   0 -1  1      -1  1  0   0  1  0   0  1 -1
                       0  0 -1   1  0 -1   0  1 -1       0  0  1  -1  0  1   0 -1  1
                      -1  1  0  -1  0  1  -1  0  0       1 -1  0   1  0 -1   1  0  0
           timopt          -1
           tolvrs1     1.00000000E-08
           tolvrs2     0.00000000E+00
            typat      1  2
         wfoptalg1        114
         wfoptalg2          0
              wtk        0.00195    0.01563    0.01563    0.01563    0.00781    0.01172
                         0.04688    0.04688    0.04688    0.04688    0.04688    0.02344
                         0.01172    0.04688    0.04688    0.04688    0.02344    0.01172
                         0.04688    0.02344    0.00586    0.04688    0.09375    0.04688
                         0.04688    0.09375    0.04688    0.02344    0.01172
           xangst      0.0000000000E+00  0.0000000000E+00  0.0000000000E+00
                       2.1065000000E+00  2.1065000000E+00  2.1065000000E+00
            xcart      0.0000000000E+00  0.0000000000E+00  0.0000000000E+00
                       3.9807080989E+00  3.9807080989E+00  3.9807080989E+00
             xred      0.0000000000E+00  0.0000000000E+00  0.0000000000E+00
                       5.0000000000E-01  5.0000000000E-01  5.0000000000E-01
            znucl       12.00000    8.00000

================================================================================

 chkinp: Checking input parameters for consistency, jdtset=   1.

 chkinp: Checking input parameters for consistency, jdtset=   2.
 DATA TYPE INFORMATION: 
 REAL:      Data type name: REAL(DP) 
            Kind value:      8
            Precision:      15
            Smallest nonnegligible quantity relative to 1: 0.22204460E-015
            Smallest positive number:                      0.22250739E-307
            Largest representable number:                  0.17976931E+309
 INTEGER:   Data type name: INTEGER(default) 
            Kind value: 4
            Bit size:   32
            Largest representable number: 2147483647
 LOGICAL:   Data type name: LOGICAL 
            Kind value: 4
 CHARACTER: Data type name: CHARACTER             Kind value: 1

  ==== OpenMP parallelism is OFF ====
 
  ==== Using MPI-2 specifications ==== 
  MPI-IO support is ON
  xmpi_tag_ub ................    536870911
  xmpi_bsize_ch ..............            1
  xmpi_bsize_int .............            4
  xmpi_bsize_sp ..............            4
  xmpi_bsize_dp ..............            8
  xmpi_bsize_spc .............            8
  xmpi_bsize_dpc .............           16
  xmpio_bsize_frm ............            4
  xmpi_address_kind ..........            8
  xmpi_offset_kind ...........            8
  MPI_WTICK ..................    2.0000000000000000E-008

================================================================================
== DATASET  1 ==================================================================
-   mpi_nproc: 116, omp_nthreads: -1 (-1 if OMP is not activated)


--- !COMMENT
src_file: m_xgScalapack.F90
src_line: 230
message: |
    xgScalapack in auto mode
...


 getdim_nloc: deduce lmnmax  =  13, lnmax  =   5,
                      lmnmaxso=  13, lnmaxso=   5.
 Exchange-correlation functional for the present dataset will be:
  GGA: Perdew-Burke-Ernzerhof functional - ixc=11
 Citation for XC functional:
  J.P.Perdew, K.Burke, M.Ernzerhof, PRL 77, 3865 (1996)

 Unit cell volume ucvol=  1.2615690E+02 bohr^3
 Angles (23,13,12)=  6.00000000E+01  6.00000000E+01  6.00000000E+01 degrees

 getcut: wavevector=  0.0000  0.0000  0.0000  ngfft=  36  36  36
         ecut(hartree)=     45.000   => boxcut(ratio)=   2.11766
 Relative gap for number of plane waves between process (%):  4.03
- pspini: atom type   1  psp file is Mg.psp8
- pspatm: opening atomic psp file    Mg.psp8
- Mg    ONCVPSP-3.2.3.1  r_core=   1.16056   1.56380
- 12.00000  10.00000    170504                znucl, zion, pspdat
    8   11    1    4       400   0.00000      pspcod,pspxc,lmax,lloc,mmax,r2well
    3.99000000000000    0.00000000000000    0.00000000000000   rchrg,fchrg,qchrg
     nproj     2     2
     extension_switch     1
  valence charge (before rescaling) integrates to:    9.5530969747686001     
  pspatm : epsatm=    9.22845333
         --- l  ekb(1:nproj) -->
             0    2.250005   -0.808630
             1   -6.469357   -2.503313
 pspatm: atomic psp has been read  and splines computed

- pspini: atom type   2  psp file is O.psp8
- pspatm: opening atomic psp file    O.psp8
- O     ONCVPSP-3.2.3.1  r_core=   1.35509   1.45563   1.26150
-  8.00000   6.00000    170504                znucl, zion, pspdat
    8   11    2    4       600   0.00000      pspcod,pspxc,lmax,lloc,mmax,r2well
    5.99000000000000    4.00000000000000    0.00000000000000   rchrg,fchrg,qchrg
     nproj     2     2     1
     extension_switch     1
  valence charge (before rescaling) integrates to:    5.9990318752405338     
  pspatm : epsatm=    6.19546011
         --- l  ekb(1:nproj) -->
             0    6.056735    0.824024
             1   -4.717130   -1.149271
             2   -1.331955
 pspatm: atomic psp has been read  and splines computed

   2.46782615E+02                                ecore*ucvol(ha*bohr**3)
 ==== Info on pseudopotentials ====
  Norm-conserving pseudopotentials
  Number of pseudopotentials ..    2
  Number of types of atoms   ..    2
  Scalar calculation (no spin-orbit term)
  Nonlocal part applied using Legendre polynomials
  Max number of non-local projectors over l and type   2
  Highest angular momentum +1 .......   3
  Max number of (l,n)   components ..   5
  Max number of (l,m,n) components ..   5

 Pseudo-Core Charge Info: 
   Number of radial points for pseudo-core charge .. 2501
   XC core-correction treatment (optnlxccc) ........    1
   Radius for pseudo-core charge for each type ..... 

  - Atom type    1 has pseudo-core radius ..  0.0000
  - Atom type    2 has pseudo-core radius ..  5.9900

 Info on the Q-grid used for form factors in spline form: 
   Number of q-points for radial functions ffspl ..   3001
   Number of q-points for vlspl ...................   3001
   vloc is computed in Reciprocal Space
   model core charge treated in real-space

  XC functional for type 1 is 11
  Pseudo valence available: yes
  XC functional for type 2 is 11
  Pseudo valence available: yes

 symatm: atom number 1 is reached starting at atom
   1  1  1  1  1  1  1  1  1  1  1  1  1  1  1  1  1  1  1  1  1  1  1  1
   1  1  1  1  1  1  1  1  1  1  1  1  1  1  1  1  1  1  1  1  1  1  1  1
 symatm: atom number 2 is reached starting at atom
   2  2  2  2  2  2  2  2  2  2  2  2  2  2  2  2  2  2  2  2  2  2  2  2
   2  2  2  2  2  2  2  2  2  2  2  2  2  2  2  2  2  2  2  2  2  2  2  2
 wfconv:    12 bands initialized randomly with npw=   469, for ikpt=     1
_setup2: Arith. and geom. avg. npw (full set) are     454.289     454.278
 initro: for itypat=  1, take pseudo charge density from pp file
 initro: for itypat=  2, take pseudo charge density from pp file

================================================================================

 getcut: wavevector=  0.0000  0.0000  0.0000  ngfft=  36  36  36
         ecut(hartree)=     45.000   => boxcut(ratio)=   2.11766

 1/G**2 cut-off applied in the following step : cutoff-mode = CRYSTAL

 1/G**2 cut-off applied in the following step : cutoff-mode = CRYSTAL

 1/G**2 cut-off applied in the following step : cutoff-mode = CRYSTAL

 ITER STEP NUMBER     1
 Max number of non-self-consistent loops: 2
- Will use non-blocking ialltoall for MPI-FFT
 Total charge density [el/Bohr^3]
)     Maximum=    3.3741E+00  at reduced coord.    0.0833    0.9722    0.4722
)     Minimum=    6.8599E-03  at reduced coord.    0.2500    0.2500    0.2500
   Integrated=    1.6000E+01

 1/G**2 cut-off applied in the following step : cutoff-mode = CRYSTAL
 ETOT  1  -75.960925986980    -7.596E+01 2.582E-04 5.086E+02
 scprqt: <Vxc>= -4.0205261E-01 hartree

 Simple mixing update:
  residual square of the potential:    286.59980756841708
{SCF_istep: 1 , Vnl|psi>: 72 , wall_time: '  0.30 [s] '} <<< TIME

 ITER STEP NUMBER     2
 Max number of non-self-consistent loops: 2
 Total charge density [el/Bohr^3]
)     Maximum=    3.4163E+00  at reduced coord.    0.0833    0.9722    0.4722
)     Minimum=    1.3942E-02  at reduced coord.    0.2500    0.2500    0.2500
   Integrated=    1.6000E+01
 ETOT  2  -75.932877709576     2.805E-02 3.779E-06 5.600E+02
 scprqt: <Vxc>= -4.3553498E-01 hartree

 Pulay update with  1 previous iterations:
 mixing of old trial potential: alpha(m:m-4)=  0.486      0.514
{SCF_istep: 2 , Vnl|psi>: 72 , wall_time: '  0.15 [s] '} <<< TIME

 ITER STEP NUMBER     3
 Total charge density [el/Bohr^3]
)     Maximum=    3.3915E+00  at reduced coord.    0.0833    0.9722    0.4722
)     Minimum=    9.6509E-03  at reduced coord.    0.2500    0.2500    0.2500
   Integrated=    1.6000E+01
 ETOT  3  -76.050685093853    -1.178E-01 3.471E-08 3.317E+00
 scprqt: <Vxc>= -4.1768946E-01 hartree

 Pulay update with  2 previous iterations:
 mixing of old trial potential: alpha(m:m-4)=  0.946      0.589E-01 -0.459E-02
{SCF_istep: 3 , Vnl|psi>: 36 , wall_time: '  0.06 [s] '} <<< TIME

 ITER STEP NUMBER     4
 Total charge density [el/Bohr^3]
)     Maximum=    3.3940E+00  at reduced coord.    0.0833    0.9722    0.4722
)     Minimum=    9.8875E-03  at reduced coord.    0.2500    0.2500    0.2500
   Integrated=    1.6000E+01
 ETOT  4  -76.051152432237    -4.673E-04 1.943E-09 4.921E-02
 scprqt: <Vxc>= -4.1873871E-01 hartree

 Pulay update with  3 previous iterations:
 mixing of old trial potential: alpha(m:m-4)=   1.11     -0.127      0.936E-02  0.981E-02
{SCF_istep: 4 , Vnl|psi>: 36 , wall_time: '  0.05 [s] '} <<< TIME

 ITER STEP NUMBER     5
 Total charge density [el/Bohr^3]
)     Maximum=    3.3938E+00  at reduced coord.    0.0833    0.9722    0.4722
)     Minimum=    9.9239E-03  at reduced coord.    0.2500    0.2500    0.2500
   Integrated=    1.6000E+01
 ETOT  5  -76.051159926548    -7.494E-06 8.490E-09 6.880E-04
 scprqt: <Vxc>= -4.1889172E-01 hartree

 Pulay update with  4 previous iterations:
 mixing of old trial potential: alpha(m:m-4)=   1.04     -0.216E-01 -0.212E-01  0.776E-04  0.109E-02
{SCF_istep: 5 , Vnl|psi>: 36 , wall_time: '  0.06 [s] '} <<< TIME

 ITER STEP NUMBER     6
 Total charge density [el/Bohr^3]
)     Maximum=    3.3940E+00  at reduced coord.    0.0833    0.9722    0.4722
)     Minimum=    9.9276E-03  at reduced coord.    0.2500    0.2500    0.2500
   Integrated=    1.6000E+01
 ETOT  6  -76.051159986184    -5.964E-08 2.603E-12 2.225E-05
 scprqt: <Vxc>= -4.1890074E-01 hartree

 Pulay update with  5 previous iterations:
 mixing of old trial potential: alpha(m:m-4)=  0.860      0.177     -0.362E-01 -0.153E-02  0.124E-03
{SCF_istep: 6 , Vnl|psi>: 36 , wall_time: '  0.06 [s] '} <<< TIME

 ITER STEP NUMBER     7
 Total charge density [el/Bohr^3]
)     Maximum=    3.3939E+00  at reduced coord.    0.0833    0.9722    0.4722
)     Minimum=    9.9284E-03  at reduced coord.    0.2500    0.2500    0.2500
   Integrated=    1.6000E+01
 ETOT  7  -76.051159990177    -3.993E-09 1.995E-11 7.106E-07
 scprqt: <Vxc>= -4.1890371E-01 hartree

 Pulay update with  6 previous iterations:
 mixing of old trial potential: alpha(m:m-4)=   1.20     -0.156     -0.565E-01  0.833E-02 -0.950E-05
{SCF_istep: 7 , Vnl|psi>: 36 , wall_time: '  0.06 [s] '} <<< TIME

 ITER STEP NUMBER     8
 Total charge density [el/Bohr^3]
)     Maximum=    3.3939E+00  at reduced coord.    0.0833    0.9722    0.4722
)     Minimum=    9.9286E-03  at reduced coord.    0.2500    0.2500    0.2500
   Integrated=    1.6000E+01
 ETOT  8  -76.051159990254    -7.692E-11 2.293E-14 1.094E-09
 scprqt: <Vxc>= -4.1890425E-01 hartree

 At SCF step    8       vres2   =  1.09E-09 < tolvrs=  1.00E-08 =>converged.
 
 -------------------------------------------------------------------------------------------------
 Ekinetic   = :     4.532098E+01 Ha ,    1.233247E+03 eV
 Evext_l    = :    -6.376399E+01 Ha ,   -1.735106E+03 eV
 Evext_nl   = :    -2.070862E+01 Ha ,   -5.635101E+02 eV
 Epsp_core  = :     1.956156E+00 Ha ,    5.322972E+01 eV
 Ehartree   = :     2.076472E+01 Ha ,    5.650368E+02 eV
 Exc_ks     = :    -1.224762E+01 Ha ,   -3.332746E+02 eV
 Enn        = :    -4.737280E+01 Ha ,   -1.289080E+03 eV
 -------------------------------------------------------------------------------------------------
 Etot       = :    -7.605116E+01 Ha ,   -2.069457E+03 eV
 -------------------------------------------------------------------------------------------------
 Computing residual forces using atomic densities taken from pseudos

 Cartesian components of stress tensor (hartree/bohr^3)
  sigma(1 1)= -1.50811752E-04  sigma(3 2)=  0.00000000E+00
  sigma(2 2)= -1.50811752E-04  sigma(3 1)=  0.00000000E+00
  sigma(3 3)= -1.50811752E-04  sigma(2 1)=  0.00000000E+00


 fftdatar_write: About to write data to: outdata_gs_DS1_DEN with iomode: IO_MODE_MPI
 IO operation , wall:  0.01 [s] , cpu:  0.00 [s] <<< TIME
- Creating netcdf file WITHOUT MPI-IO support: outdata_gs_DS1_GSR.nc
 Integrated electronic density in atomic spheres:
 ------------------------------------------------
 Atom  Sphere_radius  Integrated_density
    1        2.00000          8.40044604
    2        2.00000          6.32459160
================================================================================

 ----iterations are completed or convergence reached----


 === Gap info ===
  >>>> For spin  1
   Minimum direct gap =   4.7611 [eV], located at k-point      :   0.0000  0.0000  0.0000
   Fundamental gap    =   4.7611 [eV], Top of valence bands at :   0.0000  0.0000  0.0000
                                       Bottom of conduction at :   0.0000  0.0000  0.0000
 Mean square residual over all n,k,spin=   79.635E-18; max=  22.931E-15
   0.0000  0.0000  0.0000    1  1.50631E-17 kpt; spin; max resid(k); each band:
  1.51E-17 1.30E-17 1.26E-17 1.29E-17 6.59E-22 1.54E-20 1.54E-20 1.54E-20
  1.24E-22 1.46E-20 1.46E-20 1.46E-20
   0.1250  0.0000  0.0000    1  1.90651E-17 kpt; spin; max resid(k); each band:
  2.99E-18 6.64E-18 9.43E-18 9.43E-18 3.96E-21 3.76E-20 3.14E-20 3.14E-20
  1.43E-20 3.65E-19 1.91E-17 1.91E-17
   0.2500  0.0000  0.0000    1  3.17736E-17 kpt; spin; max resid(k); each band:
  8.73E-18 2.76E-18 5.97E-18 5.97E-18 2.17E-20 2.63E-20 1.44E-19 1.44E-19
  2.68E-20 3.44E-19 3.18E-17 3.18E-17
   0.3750  0.0000  0.0000    1  1.57628E-17 kpt; spin; max resid(k); each band:
  1.03E-17 3.59E-18 5.14E-18 5.14E-18 9.97E-20 1.74E-20 1.94E-19 1.94E-19
  4.18E-20 5.63E-19 1.58E-17 1.58E-17
   0.5000  0.0000  0.0000    1  2.07807E-17 kpt; spin; max resid(k); each band:
  2.08E-17 4.27E-18 4.06E-18 4.06E-18 7.61E-20 1.92E-20 2.64E-19 2.64E-19
  3.42E-20 5.47E-19 1.80E-19 1.80E-19
   0.1250  0.1250  0.0000    1  2.61034E-17 kpt; spin; max resid(k); each band:
  9.21E-18 2.61E-17 8.35E-18 8.35E-18 7.67E-21 6.82E-20 2.46E-20 2.46E-20
  2.02E-20 3.84E-19 4.02E-20 4.02E-20
   0.2500  0.1250  0.0000    1  8.85240E-17 kpt; spin; max resid(k); each band:
  6.00E-18 4.12E-18 6.78E-18 9.00E-18 2.33E-20 1.07E-19 4.20E-20 8.60E-20
  3.22E-20 3.90E-19 8.85E-17 1.50E-17
   0.3750  0.1250  0.0000    1  1.79249E-17 kpt; spin; max resid(k); each band:
  1.79E-17 6.79E-18 6.84E-18 3.20E-18 4.32E-20 9.31E-20 7.71E-20 1.39E-19
  5.30E-20 4.41E-19 9.92E-18 1.09E-17
   0.5000  0.1250  0.0000    1  8.22341E-18 kpt; spin; max resid(k); each band:
  5.96E-18 8.22E-18 7.96E-18 5.10E-18 9.95E-20 4.56E-20 1.19E-19 1.83E-19
  7.14E-20 4.81E-19 6.68E-19 2.01E-18
  -0.3750  0.1250  0.0000    1  2.70277E-17 kpt; spin; max resid(k); each band:
  1.06E-17 6.78E-18 6.51E-18 3.00E-18 9.19E-20 4.11E-20 1.14E-19 1.64E-19
  6.30E-20 2.48E-19 1.30E-18 2.70E-17
  -0.2500  0.1250  0.0000    1  1.79823E-16 kpt; spin; max resid(k); each band:
  9.53E-18 6.69E-18 1.05E-17 4.93E-18 4.46E-20 7.16E-20 5.06E-20 1.33E-19
  4.19E-20 4.46E-19 1.47E-18 1.80E-16
  -0.1250  0.1250  0.0000    1  4.82452E-17 kpt; spin; max resid(k); each band:
  5.02E-18 3.25E-18 1.47E-17 4.82E-17 1.19E-20 5.49E-20 4.05E-20 7.26E-20
  2.64E-20 4.52E-19 1.31E-17 2.26E-20
   0.2500  0.2500  0.0000    1  7.79104E-18 kpt; spin; max resid(k); each band:
  4.96E-18 1.07E-18 6.10E-18 7.79E-18 3.15E-20 3.66E-20 9.82E-20 4.09E-19
  1.33E-20 1.15E-19 4.00E-19 2.33E-19
   0.3750  0.2500  0.0000    1  6.50504E-17 kpt; spin; max resid(k); each band:
  7.95E-18 3.38E-18 1.05E-17 9.06E-18 8.40E-20 2.12E-19 1.58E-19 6.96E-20
  5.16E-20 1.90E-19 2.47E-19 6.51E-17
   0.5000  0.2500  0.0000    1  1.17823E-17 kpt; spin; max resid(k); each band:
  1.18E-17 2.93E-18 8.21E-18 8.87E-18 1.03E-19 1.76E-19 5.78E-20 9.83E-20
  9.14E-20 2.08E-19 1.39E-19 1.42E-18
  -0.3750  0.2500  0.0000    1  2.10319E-17 kpt; spin; max resid(k); each band:
  6.89E-18 7.41E-18 6.15E-18 5.20E-18 2.67E-19 7.47E-20 1.02E-19 9.08E-20
  1.24E-19 2.63E-19 2.89E-19 2.10E-17
  -0.2500  0.2500  0.0000    1  1.50858E-17 kpt; spin; max resid(k); each band:
  9.83E-18 4.33E-18 1.51E-17 4.26E-18 8.40E-20 1.25E-19 2.55E-20 8.20E-20
  6.76E-20 1.94E-19 1.46E-18 2.55E-18
   0.3750  0.3750  0.0000    1  7.16035E-18 kpt; spin; max resid(k); each band:
  1.90E-18 1.29E-18 7.16E-18 5.38E-18 2.81E-20 3.19E-20 5.02E-19 3.43E-19
  3.61E-20 5.35E-20 3.05E-19 1.64E-19
   0.5000  0.3750  0.0000    1  3.02553E-15 kpt; spin; max resid(k); each band:
  9.07E-18 3.47E-18 1.25E-17 4.90E-18 7.81E-20 6.73E-20 4.42E-19 5.11E-20
  5.82E-20 7.60E-20 2.27E-19 3.03E-15
  -0.3750  0.3750  0.0000    1  1.81179E-16 kpt; spin; max resid(k); each band:
  1.20E-17 8.39E-18 4.26E-18 3.19E-18 1.27E-19 3.29E-20 1.52E-19 5.19E-20
  1.07E-19 7.07E-20 6.84E-20 1.81E-16
   0.5000  0.5000  0.0000    1  7.94809E-18 kpt; spin; max resid(k); each band:
  7.14E-18 1.12E-18 7.95E-18 7.22E-18 2.35E-20 7.40E-22 3.17E-19 2.83E-19
  3.19E-20 9.61E-21 2.28E-20 3.82E-20
   0.3750  0.2500  0.1250    1  2.29308E-14 kpt; spin; max resid(k); each band:
  8.61E-18 5.87E-18 1.25E-17 8.11E-18 3.59E-20 5.58E-20 2.08E-19 5.63E-20
  4.25E-20 9.94E-19 3.79E-19 2.29E-14
   0.5000  0.2500  0.1250    1  4.95612E-17 kpt; spin; max resid(k); each band:
  1.15E-17 4.85E-18 9.83E-18 7.10E-18 8.60E-20 9.64E-20 6.29E-20 9.64E-20
  7.91E-20 5.11E-19 5.41E-19 4.96E-17
  -0.3750  0.2500  0.1250    1  1.11428E-17 kpt; spin; max resid(k); each band:
  1.11E-17 4.70E-18 7.74E-18 4.75E-18 1.13E-19 6.43E-20 7.91E-20 1.53E-19
  1.57E-19 1.66E-19 1.33E-19 7.87E-18
   0.5000  0.3750  0.1250    1  1.85527E-17 kpt; spin; max resid(k); each band:
  5.87E-18 4.48E-18 1.86E-17 2.38E-18 3.71E-20 3.26E-20 2.82E-19 3.50E-20
  4.78E-20 1.10E-19 1.06E-19 3.66E-18
  -0.3750  0.3750  0.1250    1  1.08007E-17 kpt; spin; max resid(k); each band:
  9.00E-18 5.55E-18 1.06E-17 3.79E-18 6.08E-20 6.73E-20 1.23E-19 9.85E-20
  1.27E-19 8.75E-20 7.84E-20 1.08E-17
  -0.2500  0.3750  0.1250    1  1.28326E-17 kpt; spin; max resid(k); each band:
  4.60E-18 4.84E-18 9.87E-18 2.46E-18 6.68E-20 7.15E-20 7.58E-20 5.67E-20
  1.66E-19 3.98E-19 2.79E-20 1.28E-17
  -0.3750  0.5000  0.1250    1  1.22314E-17 kpt; spin; max resid(k); each band:
  3.77E-18 8.23E-18 1.22E-17 1.41E-18 3.55E-20 3.48E-20 3.28E-19 2.26E-20
  4.23E-20 1.57E-20 6.28E-20 1.22E-18
  -0.2500  0.5000  0.2500    1  4.27056E-18 kpt; spin; max resid(k); each band:
  3.70E-18 4.27E-18 4.27E-18 2.03E-18 3.17E-20 7.66E-20 7.66E-20 1.37E-20
  3.88E-20 3.88E-20 9.69E-21 3.68E-19

   outwf: writing wavefunctions to: outdata_gs_DS1_WFK with iomode: IO_MODE_MPI
 WFK output , wall:  0.35 [s] , cpu:  0.32 [s] <<< TIME
 prteigrs : about to open file outdata_gs_DS1_EIG
 Fermi (or HOMO) energy (hartree) =   0.17341   Average Vxc (hartree)=  -0.41890
 Eigenvalues (hartree) for nkpt=  29  k points:
 kpt#   1, nband= 12, wtk=  0.00195, kpt=  0.0000  0.0000  0.0000 (reduced coord)
  -2.48570   -1.26389   -1.26389   -1.26389   -0.45811    0.17341    0.17341    0.17341
   0.34838    0.75974    0.75974    0.75974
 kpt#   2, nband= 12, wtk=  0.01563, kpt=  0.1250  0.0000  0.0000 (reduced coord)
  -2.48565   -1.26435   -1.26393   -1.26393   -0.45194    0.13872    0.16972    0.16972
   0.38168    0.69608    0.77257    0.77257
 kpt#   3, nband= 12, wtk=  0.01563, kpt=  0.2500  0.0000  0.0000 (reduced coord)
  -2.48554   -1.26546   -1.26405   -1.26405   -0.43595    0.07652    0.16121    0.16121
   0.43477    0.63760    0.78902    0.78902
 kpt#   4, nband= 12, wtk=  0.01563, kpt=  0.3750  0.0000  0.0000 (reduced coord)
  -2.48543   -1.26656   -1.26416   -1.26416   -0.41798    0.02503    0.15319    0.15319
   0.46125    0.62885    0.78087    0.78087
 kpt#   5, nband= 12, wtk=  0.00781, kpt=  0.5000  0.0000  0.0000 (reduced coord)
  -2.48538   -1.26701   -1.26421   -1.26421   -0.40977    0.00491    0.14999    0.14999
   0.46482    0.63663    0.77415    0.77415
 kpt#   6, nband= 12, wtk=  0.01172, kpt=  0.1250  0.1250  0.0000 (reduced coord)
  -2.48563   -1.26432   -1.26404   -1.26404   -0.45001    0.13586    0.16501    0.16501
   0.39251    0.67806    0.77765    0.77765
 kpt#   7, nband= 12, wtk=  0.04688, kpt=  0.2500  0.1250  0.0000 (reduced coord)
  -2.48554   -1.26513   -1.26419   -1.26413   -0.43757    0.09098    0.15590    0.15605
   0.44000    0.62779    0.77781    0.79522
 kpt#   8, nband= 12, wtk=  0.04688, kpt=  0.3750  0.1250  0.0000 (reduced coord)
  -2.48543   -1.26617   -1.26431   -1.26429   -0.42042    0.04244    0.14265    0.14832
   0.47923    0.61331    0.74085    0.79648
 kpt#   9, nband= 12, wtk=  0.04688, kpt=  0.5000  0.1250  0.0000 (reduced coord)
  -2.48536   -1.26679   -1.26447   -1.26431   -0.40875    0.01475    0.13197    0.14590
   0.48980    0.62913    0.72163    0.78867
 kpt#  10, nband= 12, wtk=  0.04688, kpt= -0.3750  0.1250  0.0000 (reduced coord)
  -2.48538   -1.26665   -1.26454   -1.26421   -0.41132    0.02101    0.12961    0.14998
   0.48944    0.62651    0.72527    0.79138
 kpt#  11, nband= 12, wtk=  0.04688, kpt= -0.2500  0.1250  0.0000 (reduced coord)
  -2.48547   -1.26584   -1.26445   -1.26405   -0.42605    0.05758    0.13760    0.15857
   0.46995    0.61925    0.74825    0.81002
 kpt#  12, nband= 12, wtk=  0.02344, kpt= -0.1250  0.1250  0.0000 (reduced coord)
  -2.48558   -1.26488   -1.26420   -1.26394   -0.44259    0.10531    0.15442    0.16693
   0.42115    0.65062    0.77118    0.79820
 kpt#  13, nband= 12, wtk=  0.01172, kpt=  0.2500  0.2500  0.0000 (reduced coord)
  -2.48549   -1.26530   -1.26441   -1.26441   -0.43013    0.07765    0.14669    0.14669
   0.47063    0.58768    0.74429    0.81755
 kpt#  14, nband= 12, wtk=  0.04688, kpt=  0.3750  0.2500  0.0000 (reduced coord)
  -2.48540   -1.26593   -1.26464   -1.26456   -0.41719    0.05063    0.13013    0.13883
   0.51119    0.56830    0.69424    0.82912
 kpt#  15, nband= 12, wtk=  0.04688, kpt=  0.5000  0.2500  0.0000 (reduced coord)
  -2.48533   -1.26636   -1.26499   -1.26457   -0.40603    0.03449    0.10395    0.13656
   0.53117    0.59976    0.66298    0.82300
 kpt#  16, nband= 12, wtk=  0.04688, kpt= -0.3750  0.2500  0.0000 (reduced coord)
  -2.48532   -1.26631   -1.26528   -1.26442   -0.40413    0.03673    0.08713    0.14098
   0.53980    0.62076    0.65647    0.81624
 kpt#  17, nband= 12, wtk=  0.02344, kpt= -0.2500  0.2500  0.0000 (reduced coord)
  -2.48538   -1.26608   -1.26507   -1.26421   -0.41284    0.04593    0.10097    0.14997
   0.52232    0.60812    0.68976    0.81873
 kpt#  18, nband= 12, wtk=  0.01172, kpt=  0.3750  0.3750  0.0000 (reduced coord)
  -2.48534   -1.26619   -1.26478   -1.26478   -0.40995    0.03812    0.13058    0.13058
   0.53019    0.53138    0.66612    0.85507
 kpt#  19, nband= 12, wtk=  0.04688, kpt=  0.5000  0.3750  0.0000 (reduced coord)
  -2.48529   -1.26636   -1.26507   -1.26483   -0.40295    0.03250    0.11083    0.12787
   0.52934    0.55852    0.65004    0.85669
 kpt#  20, nband= 12, wtk=  0.02344, kpt= -0.3750  0.3750  0.0000 (reduced coord)
  -2.48528   -1.26608   -1.26561   -1.26468   -0.40055    0.04655    0.07484    0.13198
   0.54654    0.60686    0.63391    0.84009
 kpt#  21, nband= 12, wtk=  0.00586, kpt=  0.5000  0.5000  0.0000 (reduced coord)
  -2.48528   -1.26654   -1.26493   -1.26493   -0.40155    0.02510    0.12443    0.12443
   0.51246    0.54109    0.65418    0.87075
 kpt#  22, nband= 12, wtk=  0.04688, kpt=  0.3750  0.2500  0.1250 (reduced coord)
  -2.48545   -1.26568   -1.26460   -1.26422   -0.42478    0.06356    0.13168    0.15126
   0.48609    0.59841    0.72893    0.82027
 kpt#  23, nband= 12, wtk=  0.09375, kpt=  0.5000  0.2500  0.1250 (reduced coord)
  -2.48536   -1.26626   -1.26489   -1.26437   -0.41084    0.03836    0.11084    0.14212
   0.52314    0.60309    0.68615    0.80478
 kpt#  24, nband= 12, wtk=  0.04688, kpt= -0.3750  0.2500  0.1250 (reduced coord)
  -2.48533   -1.26651   -1.26497   -1.26447   -0.40466    0.02765    0.10333    0.13778
   0.52986    0.62210    0.67051    0.79556
 kpt#  25, nband= 12, wtk=  0.04688, kpt=  0.5000  0.3750  0.1250 (reduced coord)
  -2.48533   -1.26618   -1.26500   -1.26470   -0.40737    0.04061    0.11197    0.12828
   0.55171    0.55835    0.65844    0.81676
 kpt#  26, nband= 12, wtk=  0.09375, kpt= -0.3750  0.3750  0.1250 (reduced coord)
  -2.48529   -1.26612   -1.26542   -1.26477   -0.40122    0.04593    0.08315    0.12346
   0.56442    0.60489    0.63402    0.78506
 kpt#  27, nband= 12, wtk=  0.04688, kpt= -0.2500  0.3750  0.1250 (reduced coord)
  -2.48531   -1.26602   -1.26554   -1.26460   -0.40274    0.05023    0.07555    0.13054
   0.56917    0.60549    0.64191    0.78689
 kpt#  28, nband= 12, wtk=  0.02344, kpt= -0.3750  0.5000  0.1250 (reduced coord)
  -2.48528   -1.26630   -1.26517   -1.26497   -0.40040    0.03600    0.10450    0.11653
   0.54402    0.57340    0.64199    0.81129
 kpt#  29, nband= 12, wtk=  0.01172, kpt= -0.2500  0.5000  0.2500 (reduced coord)
  -2.48528   -1.26573   -1.26573   -1.26501   -0.39923    0.06614    0.06614    0.10903
   0.60262    0.60262    0.62129    0.74495
 Total charge density [el/Bohr^3]
)     Maximum=    3.3939E+00  at reduced coord.    0.0833    0.9722    0.4722
)Next maximum=    3.3939E+00  at reduced coord.    0.9722    0.9722    0.4722
)     Minimum=    9.9286E-03  at reduced coord.    0.2500    0.2500    0.2500
)Next minimum=    9.9286E-03  at reduced coord.    0.7500    0.7500    0.2500
   Integrated=    1.6000E+01

 Cartesian components of stress tensor (hartree/bohr^3)
  sigma(1 1)= -1.50811752E-04  sigma(3 2)=  0.00000000E+00
  sigma(2 2)= -1.50811752E-04  sigma(3 1)=  0.00000000E+00
  sigma(3 3)= -1.50811752E-04  sigma(2 1)=  0.00000000E+00

-Cartesian components of stress tensor (GPa)         [Pressure=  4.4370E+00 GPa]
- sigma(1 1)= -4.43703420E+00  sigma(3 2)=  0.00000000E+00
- sigma(2 2)= -4.43703420E+00  sigma(3 1)=  0.00000000E+00
- sigma(3 3)= -4.43703420E+00  sigma(2 1)=  0.00000000E+00
 dataset: 1 , wall:  1.78 [s] , cpu:  1.60 [s] <<< TIME

================================================================================
== DATASET  2 ==================================================================
-   mpi_nproc: 128, omp_nthreads: -1 (-1 if OMP is not activated)


--- !COMMENT
src_file: m_xgScalapack.F90
src_line: 230
message: |
    xgScalapack in auto mode
...

 mkfilename : getden/=0, take file _DEN from output of DATASET   1.


 getdim_nloc: deduce lmnmax  =  13, lnmax  =   5,
                      lmnmaxso=  13, lnmaxso=   5.
 Exchange-correlation functional for the present dataset will be:
  GGA: Perdew-Burke-Ernzerhof functional - ixc=11
 Citation for XC functional:
  J.P.Perdew, K.Burke, M.Ernzerhof, PRL 77, 3865 (1996)

.Using single precision arithmetic; gwpc =  4

- Reading GS density from: outdata_gs_DS1_DEN

 getcut: wavevector=  0.0000  0.0000  0.0000  ngfft=  36  36  36
         ecut(hartree)=     45.000   => boxcut(ratio)=   2.11766

 ==== Coarse FFT mesh for the wavefunctions ====
  FFT mesh divisions ........................    36   36   36
  Augmented FFT divisions ...................    37   37   36
  FFT algorithm .............................   312
  FFT cache size ............................    16

 ==== Dense FFT mesh for densities and potentials ====
  FFT mesh divisions ........................    36   36   36
  Augmented FFT divisions ...................    37   37   36
  FFT algorithm .............................   312
  FFT cache size ............................    16
 About to read data(r) from: outdata_gs_DS1_DEN
 read_rhor , wall:  0.55 [s] , cpu:  0.54 [s] <<< TIME
 Total charge density [el/Bohr^3]
)     Maximum=    3.3939E+00  at reduced coord.    0.9722    0.9722    0.9722
)     Minimum=    9.9286E-03  at reduced coord.    0.2500    0.2500    0.2500
   Integrated=    1.6000E+01
 Comparing input crystal with DEN crystal
 prepare gwr_driver_init , wall:  0.59 [s] , cpu:  0.59 [s] <<< TIME
 Writing wavefunctions to file: outdata_gs_DS2_WFK
 FILE_OPEN , wall:  0.01 [s] , cpu:  0.00 [s] <<< TIME
 write_frmarkers , wall:  1.25 [s] , cpu:  0.92 [s] <<< TIME
 FILE_OPEN , wall:  0.02 [s] , cpu:  0.00 [s] <<< TIME
 Local memory for scalapack matrices: 38.7  [Mb] <<< MEM
 build_hg1g2 , wall:  0.53 [s] , cpu:  0.53 [s] <<< TIME

 Begin partial diagonalization for kpt: [ 0.0000E+00,  0.0000E+00,  0.0000E+00]          
 H_GG' Matrix size: 1837, nband_k: 1772, Scalapack grid: [2, 2]
 partial_diago , wall:  2.53 [s] , cpu:  2.33 [s] <<< TIME
 Moving to PBLAS block column distribution...
 block column distribution , wall:  0.08 [s] , cpu:  0.07 [s] <<< TIME
 wfk_write_band_block , wall:  0.27 [s] , cpu:  0.24 [s] <<< TIME
 Direct diago completed by this MPI pool. Other pools might take more time if k != 0
 ik_ibz: 1, spin: 1, diago_wall:  3.21 [s], io_wall:  0.27 [s], nprocs: 4
 ik_ibz: 2, spin: 1, diago_wall:  3.27 [s], io_wall:  0.23 [s], nprocs: 4
 ik_ibz: 3, spin: 1, diago_wall:  3.25 [s], io_wall:  0.24 [s], nprocs: 4
 ik_ibz: 4, spin: 1, diago_wall:  3.24 [s], io_wall:  0.24 [s], nprocs: 4
 ik_ibz: 5, spin: 1, diago_wall:  3.16 [s], io_wall:  0.27 [s], nprocs: 4
 ik_ibz: 6, spin: 1, diago_wall:  3.27 [s], io_wall:  0.25 [s], nprocs: 4
 ik_ibz: 7, spin: 1, diago_wall:  3.31 [s], io_wall:  0.22 [s], nprocs: 4
 ik_ibz: 8, spin: 1, diago_wall:  3.32 [s], io_wall:  0.22 [s], nprocs: 4
 ik_ibz: 9, spin: 1, diago_wall:  3.29 [s], io_wall:  0.22 [s], nprocs: 4
 ik_ibz: 10, spin: 1, diago_wall:  3.30 [s], io_wall:  0.22 [s], nprocs: 4
 ik_ibz: 11, spin: 1, diago_wall:  3.30 [s], io_wall:  0.23 [s], nprocs: 4
 ik_ibz: 12, spin: 1, diago_wall:  3.28 [s], io_wall:  0.24 [s], nprocs: 4
 ik_ibz: 13, spin: 1, diago_wall:  3.21 [s], io_wall:  0.25 [s], nprocs: 4
 ik_ibz: 14, spin: 1, diago_wall:  3.18 [s], io_wall:  0.25 [s], nprocs: 4
 ik_ibz: 15, spin: 1, diago_wall:  3.24 [s], io_wall:  0.23 [s], nprocs: 4
 ik_ibz: 16, spin: 1, diago_wall:  3.24 [s], io_wall:  0.28 [s], nprocs: 4
 ik_ibz: 17, spin: 1, diago_wall:  3.24 [s], io_wall:  0.38 [s], nprocs: 4
 ik_ibz: 18, spin: 1, diago_wall:  3.12 [s], io_wall:  0.40 [s], nprocs: 4
 ik_ibz: 19, spin: 1, diago_wall:  3.12 [s], io_wall:  0.43 [s], nprocs: 4
 ik_ibz: 20, spin: 1, diago_wall:  3.23 [s], io_wall:  0.38 [s], nprocs: 4
 ik_ibz: 21, spin: 1, diago_wall:  3.01 [s], io_wall:  0.16 [s], nprocs: 4
 ik_ibz: 22, spin: 1, diago_wall:  3.23 [s], io_wall:  0.39 [s], nprocs: 4
 ik_ibz: 23, spin: 1, diago_wall:  3.17 [s], io_wall:  0.38 [s], nprocs: 4
 ik_ibz: 24, spin: 1, diago_wall:  3.16 [s], io_wall:  0.38 [s], nprocs: 4
 ik_ibz: 25, spin: 1, diago_wall:  3.19 [s], io_wall:  0.40 [s], nprocs: 4
 ik_ibz: 26, spin: 1, diago_wall:  3.23 [s], io_wall:  0.38 [s], nprocs: 4
 ik_ibz: 27, spin: 1, diago_wall:  3.19 [s], io_wall:  0.39 [s], nprocs: 4
 ik_ibz: 28, spin: 1, diago_wall:  3.20 [s], io_wall:  0.40 [s], nprocs: 4
 ik_ibz: 29, spin: 1, diago_wall:  3.05 [s], io_wall:  0.13 [s], nprocs: 4
 Top of valence:   4.7187 (eV)
 Bottom of conduction:   9.4798 (eV)
 Fundamental gap:  4.7611 (eV)

 Fermi level: 7.0992  (eV) 


 === KS gaps after direct diagonalization ===
 Direct band gap semiconductor
 Fundamental gap:     4.761 (eV)
   VBM:     4.719 (eV) at k: [ 0.0000E+00,  0.0000E+00,  0.0000E+00]
   CBM:     9.480 (eV) at k: [ 0.0000E+00,  0.0000E+00,  0.0000E+00]
 Direct gap:         4.761 (eV) at k: [ 0.0000E+00,  0.0000E+00,  0.0000E+00]

 dataset: 2 , wall:  5.50 [s] , cpu:  4.89 [s] <<< TIME

== END DATASET(S) ==============================================================
================================================================================
  
 -outvars: echo values of variables after computation  --------
 
 These variables are accessible in NetCDF format (outdata_gs_OUT.nc)

-          iomode1          1
-          iomode2          0
            acell      7.9614161978E+00  7.9614161978E+00  7.9614161978E+00 Bohr
              amu      2.43050000E+01  1.59994000E+01
        autoparal1          1
        autoparal2          0
           bandpp1          6
           bandpp2          1
     densfor_pred1          6
     densfor_pred2          2
           diemac      1.20000000E+01
             ecut      4.50000000E+01 Hartree
           etotal1    -7.6051159990E+01
           etotal2     0.0000000000E+00
            fcart1    -0.0000000000E+00 -0.0000000000E+00 -0.0000000000E+00
                      -0.0000000000E+00 -0.0000000000E+00 -0.0000000000E+00
            fcart2     0.0000000000E+00  0.0000000000E+00  0.0000000000E+00
                       0.0000000000E+00  0.0000000000E+00  0.0000000000E+00
-          fftalg         312
           getden1          0
           getden2         -1
           istwfk        1    0    0    0    1    0    0    0    0    0
                         0    0    0    0    0    0    0    0    0    0
                         1    0    0    0    0    0    0    0    0
              ixc          11
           jdtset        1    2
              kpt      0.00000000E+00  0.00000000E+00  0.00000000E+00
                       1.25000000E-01  0.00000000E+00  0.00000000E+00
                       2.50000000E-01  0.00000000E+00  0.00000000E+00
                       3.75000000E-01  0.00000000E+00  0.00000000E+00
                       5.00000000E-01  0.00000000E+00  0.00000000E+00
                       1.25000000E-01  1.25000000E-01  0.00000000E+00
                       2.50000000E-01  1.25000000E-01  0.00000000E+00
                       3.75000000E-01  1.25000000E-01  0.00000000E+00
                       5.00000000E-01  1.25000000E-01  0.00000000E+00
                      -3.75000000E-01  1.25000000E-01  0.00000000E+00
                      -2.50000000E-01  1.25000000E-01  0.00000000E+00
                      -1.25000000E-01  1.25000000E-01  0.00000000E+00
                       2.50000000E-01  2.50000000E-01  0.00000000E+00
                       3.75000000E-01  2.50000000E-01  0.00000000E+00
                       5.00000000E-01  2.50000000E-01  0.00000000E+00
                      -3.75000000E-01  2.50000000E-01  0.00000000E+00
                      -2.50000000E-01  2.50000000E-01  0.00000000E+00
                       3.75000000E-01  3.75000000E-01  0.00000000E+00
                       5.00000000E-01  3.75000000E-01  0.00000000E+00
                      -3.75000000E-01  3.75000000E-01  0.00000000E+00
                       5.00000000E-01  5.00000000E-01  0.00000000E+00
                       3.75000000E-01  2.50000000E-01  1.25000000E-01
                       5.00000000E-01  2.50000000E-01  1.25000000E-01
                      -3.75000000E-01  2.50000000E-01  1.25000000E-01
                       5.00000000E-01  3.75000000E-01  1.25000000E-01
                      -3.75000000E-01  3.75000000E-01  1.25000000E-01
                      -2.50000000E-01  3.75000000E-01  1.25000000E-01
                      -3.75000000E-01  5.00000000E-01  1.25000000E-01
                      -2.50000000E-01  5.00000000E-01  2.50000000E-01
         kptrlatt        8    0    0      0    8    0      0    0    8
          kptrlen      4.50365711E+01
P           mkmem           1
            natom           2
            nband1         12
            nband2          9
           ndtset           2
            ngfft          36      36      36
             nkpt          29
-          npband1          2
-          npband2          1
-           npfft1          2
-           npfft2          1
-        np_spkpt1         29
-        np_spkpt2          1
            nstep          50
             nsym          48
           ntypat           2
              occ1     2.000000  2.000000  2.000000  2.000000  2.000000  2.000000
                       2.000000  2.000000  0.000000  0.000000  0.000000  0.000000
              occ2     2.000000  2.000000  2.000000  2.000000  2.000000  2.000000
                       2.000000  2.000000  0.000000
        optdriver1          0
        optdriver2          6
           ortalg1         -2
           ortalg2          2
        paral_kgb1          1
        paral_kgb2          0
            rprim      0.0000000000E+00  5.0000000000E-01  5.0000000000E-01
                       5.0000000000E-01  0.0000000000E+00  5.0000000000E-01
                       5.0000000000E-01  5.0000000000E-01  0.0000000000E+00
          spgroup         225
           strten1    -1.5081175248E-04 -1.5081175248E-04 -1.5081175248E-04
                       0.0000000000E+00  0.0000000000E+00  0.0000000000E+00
           strten2     0.0000000000E+00  0.0000000000E+00  0.0000000000E+00
                       0.0000000000E+00  0.0000000000E+00  0.0000000000E+00
           symrel      1  0  0   0  1  0   0  0  1      -1  0  0   0 -1  0   0  0 -1
                       0 -1  1   0 -1  0   1 -1  0       0  1 -1   0  1  0  -1  1  0
                      -1  0  0  -1  0  1  -1  1  0       1  0  0   1  0 -1   1 -1  0
                       0  1 -1   1  0 -1   0  0 -1       0 -1  1  -1  0  1   0  0  1
                      -1  0  0  -1  1  0  -1  0  1       1  0  0   1 -1  0   1  0 -1
                       0 -1  1   1 -1  0   0 -1  0       0  1 -1  -1  1  0   0  1  0
                       1  0  0   0  0  1   0  1  0      -1  0  0   0  0 -1   0 -1  0
                       0  1 -1   0  0 -1   1  0 -1       0 -1  1   0  0  1  -1  0  1
                      -1  0  1  -1  1  0  -1  0  0       1  0 -1   1 -1  0   1  0  0
                       0 -1  0   1 -1  0   0 -1  1       0  1  0  -1  1  0   0  1 -1
                       1  0 -1   0  0 -1   0  1 -1      -1  0  1   0  0  1   0 -1  1
                       0  1  0   0  0  1   1  0  0       0 -1  0   0  0 -1  -1  0  0
                       1  0 -1   0  1 -1   0  0 -1      -1  0  1   0 -1  1   0  0  1
                       0 -1  0   0 -1  1   1 -1  0       0  1  0   0  1 -1  -1  1  0
                      -1  0  1  -1  0  0  -1  1  0       1  0 -1   1  0  0   1 -1  0
                       0  1  0   1  0  0   0  0  1       0 -1  0  -1  0  0   0  0 -1
                       0  0 -1   0  1 -1   1  0 -1       0  0  1   0 -1  1  -1  0  1
                       1 -1  0   0 -1  1   0 -1  0      -1  1  0   0  1 -1   0  1  0
                       0  0  1   1  0  0   0  1  0       0  0 -1  -1  0  0   0 -1  0
                      -1  1  0  -1  0  0  -1  0  1       1 -1  0   1  0  0   1  0 -1
                       0  0  1   0  1  0   1  0  0       0  0 -1   0 -1  0  -1  0  0
                       1 -1  0   0 -1  0   0 -1  1      -1  1  0   0  1  0   0  1 -1
                       0  0 -1   1  0 -1   0  1 -1       0  0  1  -1  0  1   0 -1  1
                      -1  1  0  -1  0  1  -1  0  0       1 -1  0   1  0 -1   1  0  0
           timopt          -1
           tolvrs1     1.00000000E-08
           tolvrs2     0.00000000E+00
            typat      1  2
         wfoptalg1        114
         wfoptalg2          0
              wtk        0.00195    0.01563    0.01563    0.01563    0.00781    0.01172
                         0.04688    0.04688    0.04688    0.04688    0.04688    0.02344
                         0.01172    0.04688    0.04688    0.04688    0.02344    0.01172
                         0.04688    0.02344    0.00586    0.04688    0.09375    0.04688
                         0.04688    0.09375    0.04688    0.02344    0.01172
           xangst      0.0000000000E+00  0.0000000000E+00  0.0000000000E+00
                       2.1065000000E+00  2.1065000000E+00  2.1065000000E+00
            xcart      0.0000000000E+00  0.0000000000E+00  0.0000000000E+00
                       3.9807080989E+00  3.9807080989E+00  3.9807080989E+00
             xred      0.0000000000E+00  0.0000000000E+00  0.0000000000E+00
                       5.0000000000E-01  5.0000000000E-01  5.0000000000E-01
            znucl       12.00000    8.00000

================================================================================
  
 Proc.   0 individual time (sec): cpu=          7.1  wall=          8.0

 Calculation completed.
.Delivered   0 WARNINGs and   0 COMMENTs to log file.

--- !FinalSummary
program: abinit
version: 9.9.2
start_datetime: Fri Feb 17 10:25:15 2023
end_datetime: Fri Feb 17 10:25:23 2023
overall_cpu_time:         974.9
overall_wall_time:        1025.2
exit_requested_by_user: no 
timelimit: 0
pseudos: 
    Mg  : d65d9c3e5a38003fc995d0911d5c6f77
    O   : abbcf0645b4a6d69360cd16bcad3e730
usepaw: 0
mpi_procs: 128
omp_threads: 1
num_warnings: 0
num_comments: 0
...
