
.Version 9.9.2 of ABINIT 
.(MPI version, prepared for a x86_64_linux_gnu11.2 computer) 

.Copyright (C) 1998-2022 ABINIT group . 
 ABINIT comes with ABSOLUTELY NO WARRANTY.
 It is free software, and you are welcome to redistribute it
 under certain conditions (GNU General Public License,
 see ~abinit/COPYING or http://www.gnu.org/copyleft/gpl.txt).

 ABINIT is a project of the Universite Catholique de Louvain,
 Corning Inc. and other collaborators, see ~abinit/doc/developers/contributors.txt .
 Please read https://docs.abinit.org/theory/acknowledgments for suggested
 acknowledgments of the ABINIT effort.
 For more information, see https://www.abinit.org .

.Starting date : Fri 17 Feb 2023.
- ( at 00h45 )
  
- input  file    -> run.abi
- output file    -> run.abo
- root for input  files -> ../indata_gs
- root for output files -> outdata_gwr


 DATASET    1 : space group F-4 3 m (#216); Bravais cF (face-center cubic)
================================================================================
 Values of the parameters that define the memory need for DATASET  1.
     intxc =       0    ionmov =       0      iscf =       7    lmnmax =       6
     lnmax =       6     mgfft =      36  mpssoang =       3    mqgrid =    3001
     natom =       2  nloc_mem =       1    nspden =       1   nspinor =       1
    nsppol =       1      nsym =      24    n1xccc =    2501    ntypat =       2
    occopt =       1   xclevel =       2
-    mband =         480        mffmem =           1         mkmem =           1
       mpw =        1700          nfft =       46656          nkpt =          29
================================================================================
P This job should need less than                      35.897 Mbytes of memory.
  Rough estimation (10% accuracy) of disk space for files :
_ WF disk file :    361.086 Mbytes ; DEN or POT disk file :      0.358 Mbytes.
================================================================================


 DATASET    2 : space group F-4 3 m (#216); Bravais cF (face-center cubic)
================================================================================
 Values of the parameters that define the memory need for DATASET  2.
     intxc =       0    ionmov =       0      iscf =       7    lmnmax =       6
     lnmax =       6     mgfft =      36  mpssoang =       3    mqgrid =    3001
     natom =       2  nloc_mem =       1    nspden =       1   nspinor =       1
    nsppol =       1      nsym =      24    n1xccc =    2501    ntypat =       2
    occopt =       1   xclevel =       2
-    mband =         480        mffmem =           1         mkmem =           1
       mpw =        1700          nfft =       46656          nkpt =          29
================================================================================
P This job should need less than                      35.897 Mbytes of memory.
  Rough estimation (10% accuracy) of disk space for files :
_ WF disk file :    361.086 Mbytes ; DEN or POT disk file :      0.358 Mbytes.
================================================================================


 DATASET    3 : space group F-4 3 m (#216); Bravais cF (face-center cubic)
================================================================================
 Values of the parameters that define the memory need for DATASET  3.
     intxc =       0    ionmov =       0      iscf =       7    lmnmax =       6
     lnmax =       6     mgfft =      36  mpssoang =       3    mqgrid =    3001
     natom =       2  nloc_mem =       1    nspden =       1   nspinor =       1
    nsppol =       1      nsym =      24    n1xccc =    2501    ntypat =       2
    occopt =       1   xclevel =       2
-    mband =         480        mffmem =           1         mkmem =           1
       mpw =        1700          nfft =       46656          nkpt =          29
================================================================================
P This job should need less than                      35.897 Mbytes of memory.
  Rough estimation (10% accuracy) of disk space for files :
_ WF disk file :    361.086 Mbytes ; DEN or POT disk file :      0.358 Mbytes.
================================================================================


 DATASET    4 : space group F-4 3 m (#216); Bravais cF (face-center cubic)
================================================================================
 Values of the parameters that define the memory need for DATASET  4.
     intxc =       0    ionmov =       0      iscf =       7    lmnmax =       6
     lnmax =       6     mgfft =      36  mpssoang =       3    mqgrid =    3001
     natom =       2  nloc_mem =       1    nspden =       1   nspinor =       1
    nsppol =       1      nsym =      24    n1xccc =    2501    ntypat =       2
    occopt =       1   xclevel =       2
-    mband =         480        mffmem =           1         mkmem =           1
       mpw =        1700          nfft =       46656          nkpt =          29
================================================================================
P This job should need less than                      35.897 Mbytes of memory.
  Rough estimation (10% accuracy) of disk space for files :
_ WF disk file :    361.086 Mbytes ; DEN or POT disk file :      0.358 Mbytes.
================================================================================


 DATASET    5 : space group F-4 3 m (#216); Bravais cF (face-center cubic)
================================================================================
 Values of the parameters that define the memory need for DATASET  5.
     intxc =       0    ionmov =       0      iscf =       7    lmnmax =       6
     lnmax =       6     mgfft =      36  mpssoang =       3    mqgrid =    3001
     natom =       2  nloc_mem =       1    nspden =       1   nspinor =       1
    nsppol =       1      nsym =      24    n1xccc =    2501    ntypat =       2
    occopt =       1   xclevel =       2
-    mband =         480        mffmem =           1         mkmem =           1
       mpw =        1700          nfft =       46656          nkpt =          29
================================================================================
P This job should need less than                      35.897 Mbytes of memory.
  Rough estimation (10% accuracy) of disk space for files :
_ WF disk file :    361.086 Mbytes ; DEN or POT disk file :      0.358 Mbytes.
================================================================================


 DATASET    6 : space group F-4 3 m (#216); Bravais cF (face-center cubic)
================================================================================
 Values of the parameters that define the memory need for DATASET  6.
     intxc =       0    ionmov =       0      iscf =       7    lmnmax =       6
     lnmax =       6     mgfft =      36  mpssoang =       3    mqgrid =    3001
     natom =       2  nloc_mem =       1    nspden =       1   nspinor =       1
    nsppol =       1      nsym =      24    n1xccc =    2501    ntypat =       2
    occopt =       1   xclevel =       2
-    mband =         480        mffmem =           1         mkmem =           1
       mpw =        1700          nfft =       46656          nkpt =          29
================================================================================
P This job should need less than                      35.897 Mbytes of memory.
  Rough estimation (10% accuracy) of disk space for files :
_ WF disk file :    361.086 Mbytes ; DEN or POT disk file :      0.358 Mbytes.
================================================================================


 DATASET    7 : space group F-4 3 m (#216); Bravais cF (face-center cubic)
================================================================================
 Values of the parameters that define the memory need for DATASET  7.
     intxc =       0    ionmov =       0      iscf =       7    lmnmax =       6
     lnmax =       6     mgfft =      36  mpssoang =       3    mqgrid =    3001
     natom =       2  nloc_mem =       1    nspden =       1   nspinor =       1
    nsppol =       1      nsym =      24    n1xccc =    2501    ntypat =       2
    occopt =       1   xclevel =       2
-    mband =         480        mffmem =           1         mkmem =           1
       mpw =        1700          nfft =       46656          nkpt =          29
================================================================================
P This job should need less than                      35.897 Mbytes of memory.
  Rough estimation (10% accuracy) of disk space for files :
_ WF disk file :    361.086 Mbytes ; DEN or POT disk file :      0.358 Mbytes.
================================================================================


 DATASET    8 : space group F-4 3 m (#216); Bravais cF (face-center cubic)
================================================================================
 Values of the parameters that define the memory need for DATASET  8.
     intxc =       0    ionmov =       0      iscf =       7    lmnmax =       6
     lnmax =       6     mgfft =      36  mpssoang =       3    mqgrid =    3001
     natom =       2  nloc_mem =       1    nspden =       1   nspinor =       1
    nsppol =       1      nsym =      24    n1xccc =    2501    ntypat =       2
    occopt =       1   xclevel =       2
-    mband =         480        mffmem =           1         mkmem =           1
       mpw =        1700          nfft =       46656          nkpt =          29
================================================================================
P This job should need less than                      35.897 Mbytes of memory.
  Rough estimation (10% accuracy) of disk space for files :
_ WF disk file :    361.086 Mbytes ; DEN or POT disk file :      0.358 Mbytes.
================================================================================


 DATASET    9 : space group F-4 3 m (#216); Bravais cF (face-center cubic)
================================================================================
 Values of the parameters that define the memory need for DATASET  9.
     intxc =       0    ionmov =       0      iscf =       7    lmnmax =       6
     lnmax =       6     mgfft =      36  mpssoang =       3    mqgrid =    3001
     natom =       2  nloc_mem =       1    nspden =       1   nspinor =       1
    nsppol =       1      nsym =      24    n1xccc =    2501    ntypat =       2
    occopt =       1   xclevel =       2
-    mband =         480        mffmem =           1         mkmem =           1
       mpw =        1700          nfft =       46656          nkpt =          29
================================================================================
P This job should need less than                      35.897 Mbytes of memory.
  Rough estimation (10% accuracy) of disk space for files :
_ WF disk file :    361.086 Mbytes ; DEN or POT disk file :      0.358 Mbytes.
================================================================================


 DATASET   10 : space group F-4 3 m (#216); Bravais cF (face-center cubic)
================================================================================
 Values of the parameters that define the memory need for DATASET 10.
     intxc =       0    ionmov =       0      iscf =       7    lmnmax =       6
     lnmax =       6     mgfft =      36  mpssoang =       3    mqgrid =    3001
     natom =       2  nloc_mem =       1    nspden =       1   nspinor =       1
    nsppol =       1      nsym =      24    n1xccc =    2501    ntypat =       2
    occopt =       1   xclevel =       2
-    mband =         480        mffmem =           1         mkmem =           1
       mpw =        1700          nfft =       46656          nkpt =          29
================================================================================
P This job should need less than                      35.897 Mbytes of memory.
  Rough estimation (10% accuracy) of disk space for files :
_ WF disk file :    361.086 Mbytes ; DEN or POT disk file :      0.358 Mbytes.
================================================================================

--------------------------------------------------------------------------------
------------- Echo of variables that govern the present computation ------------
--------------------------------------------------------------------------------
-
- outvars: echo of selected default values                                      
-   iomode0 =  0 , fftalg0 =312 , wfoptalg0 =  0
-
- outvars: echo of global parameters not present in the input file              
-  max_nthreads =    0
-
 -outvars: echo values of preprocessed input variables --------
            acell      8.2203086781E+00  8.2203086781E+00  8.2203086781E+00 Bohr
              amu      1.20110000E+01  2.80855000E+01
             bdgw           1       8       1       8
           diemac      1.20000000E+01
             ecut      4.00000000E+01 Hartree
          ecuteps      1.20000000E+01 Hartree
         ecutsigx      4.00000000E+01 Hartree
-          fftalg         312
-     gwr_np_kgts        4   64    2    1
-  gwr_ucsc_batch        4    4
         gwr_ntau1          6
         gwr_ntau2          8
         gwr_ntau3         10
         gwr_ntau4         12
         gwr_ntau5         14
         gwr_ntau6         16
         gwr_ntau7         18
         gwr_ntau8         20
         gwr_ntau9         22
         gwr_ntau10        24
   gwr_sigma_algo           2
           istwfk        1    0    0    0    1    0    0    0    0    0
                         0    0    0    0    0    0    0    0    0    0
                         1    0    0    0    0    0    0    0    0
              ixc          11
           jdtset        1    2    3    4    5    6    7    8    9   10
              kpt      0.00000000E+00  0.00000000E+00  0.00000000E+00
                       1.25000000E-01  0.00000000E+00  0.00000000E+00
                       2.50000000E-01  0.00000000E+00  0.00000000E+00
                       3.75000000E-01  0.00000000E+00  0.00000000E+00
                       5.00000000E-01  0.00000000E+00  0.00000000E+00
                       1.25000000E-01  1.25000000E-01  0.00000000E+00
                       2.50000000E-01  1.25000000E-01  0.00000000E+00
                       3.75000000E-01  1.25000000E-01  0.00000000E+00
                       5.00000000E-01  1.25000000E-01  0.00000000E+00
                      -3.75000000E-01  1.25000000E-01  0.00000000E+00
                      -2.50000000E-01  1.25000000E-01  0.00000000E+00
                      -1.25000000E-01  1.25000000E-01  0.00000000E+00
                       2.50000000E-01  2.50000000E-01  0.00000000E+00
                       3.75000000E-01  2.50000000E-01  0.00000000E+00
                       5.00000000E-01  2.50000000E-01  0.00000000E+00
                      -3.75000000E-01  2.50000000E-01  0.00000000E+00
                      -2.50000000E-01  2.50000000E-01  0.00000000E+00
                       3.75000000E-01  3.75000000E-01  0.00000000E+00
                       5.00000000E-01  3.75000000E-01  0.00000000E+00
                      -3.75000000E-01  3.75000000E-01  0.00000000E+00
                       5.00000000E-01  5.00000000E-01  0.00000000E+00
                       3.75000000E-01  2.50000000E-01  1.25000000E-01
                       5.00000000E-01  2.50000000E-01  1.25000000E-01
                      -3.75000000E-01  2.50000000E-01  1.25000000E-01
                       5.00000000E-01  3.75000000E-01  1.25000000E-01
                      -3.75000000E-01  3.75000000E-01  1.25000000E-01
                      -2.50000000E-01  3.75000000E-01  1.25000000E-01
                      -3.75000000E-01  5.00000000E-01  1.25000000E-01
                      -2.50000000E-01  5.00000000E-01  2.50000000E-01
            kptgw      0.00000000E+00  0.00000000E+00  0.00000000E+00
                       5.00000000E-01  5.00000000E-01  0.00000000E+00
         kptrlatt        8    0    0      0    8    0      0    0    8
          kptrlen      4.65010881E+01
P           mkmem           1
            natom           2
            nband         480
           ndtset          10
            ngfft          36      36      36
             nkpt          29
           nkptgw           2
            nstep          50
             nsym          24
           ntypat           2
              occ      2.000000  2.000000  2.000000  2.000000  0.000000  0.000000
                       0.000000  0.000000  0.000000  0.000000  0.000000  0.000000
                       0.000000  0.000000  0.000000  0.000000  0.000000  0.000000
                       0.000000  0.000000  0.000000  0.000000  0.000000  0.000000
                       0.000000  0.000000  0.000000  0.000000  0.000000  0.000000
                       0.000000  0.000000  0.000000  0.000000  0.000000  0.000000
                       0.000000  0.000000  0.000000  0.000000  0.000000  0.000000
                       0.000000  0.000000  0.000000  0.000000  0.000000  0.000000
                       0.000000  0.000000  0.000000  0.000000  0.000000  0.000000
                       0.000000  0.000000  0.000000  0.000000  0.000000  0.000000
                       0.000000  0.000000  0.000000  0.000000  0.000000  0.000000
                       0.000000  0.000000  0.000000  0.000000  0.000000  0.000000
                       0.000000  0.000000  0.000000  0.000000  0.000000  0.000000
                       0.000000  0.000000  0.000000  0.000000  0.000000  0.000000
                       0.000000  0.000000  0.000000  0.000000  0.000000  0.000000
                       0.000000  0.000000  0.000000  0.000000  0.000000  0.000000
                       0.000000  0.000000  0.000000  0.000000  0.000000  0.000000
                       0.000000  0.000000  0.000000  0.000000  0.000000  0.000000
                       0.000000  0.000000  0.000000  0.000000  0.000000  0.000000
                       0.000000  0.000000  0.000000  0.000000  0.000000  0.000000
                       0.000000  0.000000  0.000000  0.000000  0.000000  0.000000
                       0.000000  0.000000  0.000000  0.000000  0.000000  0.000000
                       0.000000  0.000000  0.000000  0.000000  0.000000  0.000000
                       0.000000  0.000000  0.000000  0.000000  0.000000  0.000000
                       0.000000  0.000000  0.000000  0.000000  0.000000  0.000000
                       0.000000  0.000000  0.000000  0.000000  0.000000  0.000000
                       0.000000  0.000000  0.000000  0.000000  0.000000  0.000000
                       0.000000  0.000000  0.000000  0.000000  0.000000  0.000000
                       0.000000  0.000000  0.000000  0.000000  0.000000  0.000000
                       0.000000  0.000000  0.000000  0.000000  0.000000  0.000000
                       0.000000  0.000000  0.000000  0.000000  0.000000  0.000000
                       0.000000  0.000000  0.000000  0.000000  0.000000  0.000000
                       0.000000  0.000000  0.000000  0.000000  0.000000  0.000000
                       0.000000  0.000000  0.000000  0.000000  0.000000  0.000000
                       0.000000  0.000000  0.000000  0.000000  0.000000  0.000000
                       0.000000  0.000000  0.000000  0.000000  0.000000  0.000000
                       0.000000  0.000000  0.000000  0.000000  0.000000  0.000000
                       0.000000  0.000000  0.000000  0.000000  0.000000  0.000000
                       0.000000  0.000000  0.000000  0.000000  0.000000  0.000000
                       0.000000  0.000000  0.000000  0.000000  0.000000  0.000000
                       0.000000  0.000000  0.000000  0.000000  0.000000  0.000000
                       0.000000  0.000000  0.000000  0.000000  0.000000  0.000000
                       0.000000  0.000000  0.000000  0.000000  0.000000  0.000000
                       0.000000  0.000000  0.000000  0.000000  0.000000  0.000000
                       0.000000  0.000000  0.000000  0.000000  0.000000  0.000000
                       0.000000  0.000000  0.000000  0.000000  0.000000  0.000000
                       0.000000  0.000000  0.000000  0.000000  0.000000  0.000000
                       0.000000  0.000000  0.000000  0.000000  0.000000  0.000000
                       0.000000  0.000000  0.000000  0.000000  0.000000  0.000000
                       0.000000  0.000000  0.000000  0.000000  0.000000  0.000000
                       0.000000  0.000000  0.000000  0.000000  0.000000  0.000000
                       0.000000  0.000000  0.000000  0.000000  0.000000  0.000000
                       0.000000  0.000000  0.000000  0.000000  0.000000  0.000000
                       0.000000  0.000000  0.000000  0.000000  0.000000  0.000000
                       0.000000  0.000000  0.000000  0.000000  0.000000  0.000000
                       0.000000  0.000000  0.000000  0.000000  0.000000  0.000000
                       0.000000  0.000000  0.000000  0.000000  0.000000  0.000000
                       0.000000  0.000000  0.000000  0.000000  0.000000  0.000000
                       0.000000  0.000000  0.000000  0.000000  0.000000  0.000000
                       0.000000  0.000000  0.000000  0.000000  0.000000  0.000000
                       0.000000  0.000000  0.000000  0.000000  0.000000  0.000000
                       0.000000  0.000000  0.000000  0.000000  0.000000  0.000000
                       0.000000  0.000000  0.000000  0.000000  0.000000  0.000000
                       0.000000  0.000000  0.000000  0.000000  0.000000  0.000000
                       0.000000  0.000000  0.000000  0.000000  0.000000  0.000000
                       0.000000  0.000000  0.000000  0.000000  0.000000  0.000000
                       0.000000  0.000000  0.000000  0.000000  0.000000  0.000000
                       0.000000  0.000000  0.000000  0.000000  0.000000  0.000000
                       0.000000  0.000000  0.000000  0.000000  0.000000  0.000000
                       0.000000  0.000000  0.000000  0.000000  0.000000  0.000000
                       0.000000  0.000000  0.000000  0.000000  0.000000  0.000000
                       0.000000  0.000000  0.000000  0.000000  0.000000  0.000000
                       0.000000  0.000000  0.000000  0.000000  0.000000  0.000000
                       0.000000  0.000000  0.000000  0.000000  0.000000  0.000000
                       0.000000  0.000000  0.000000  0.000000  0.000000  0.000000
                       0.000000  0.000000  0.000000  0.000000  0.000000  0.000000
                       0.000000  0.000000  0.000000  0.000000  0.000000  0.000000
                       0.000000  0.000000  0.000000  0.000000  0.000000  0.000000
                       0.000000  0.000000  0.000000  0.000000  0.000000  0.000000
                       0.000000  0.000000  0.000000  0.000000  0.000000  0.000000
        optdriver           6
            rprim      0.0000000000E+00  5.0000000000E-01  5.0000000000E-01
                       5.0000000000E-01  0.0000000000E+00  5.0000000000E-01
                       5.0000000000E-01  5.0000000000E-01  0.0000000000E+00
          spgroup         216
           symrel      1  0  0   0  1  0   0  0  1       0 -1  1   0 -1  0   1 -1  0
                      -1  0  0  -1  0  1  -1  1  0       0  1 -1   1  0 -1   0  0 -1
                      -1  0  0  -1  1  0  -1  0  1       0 -1  1   1 -1  0   0 -1  0
                       1  0  0   0  0  1   0  1  0       0  1 -1   0  0 -1   1  0 -1
                      -1  0  1  -1  1  0  -1  0  0       0 -1  0   1 -1  0   0 -1  1
                       1  0 -1   0  0 -1   0  1 -1       0  1  0   0  0  1   1  0  0
                       1  0 -1   0  1 -1   0  0 -1       0 -1  0   0 -1  1   1 -1  0
                      -1  0  1  -1  0  0  -1  1  0       0  1  0   1  0  0   0  0  1
                       0  0 -1   0  1 -1   1  0 -1       1 -1  0   0 -1  1   0 -1  0
                       0  0  1   1  0  0   0  1  0      -1  1  0  -1  0  0  -1  0  1
                       0  0  1   0  1  0   1  0  0       1 -1  0   0 -1  0   0 -1  1
                       0  0 -1   1  0 -1   0  1 -1      -1  1  0  -1  0  1  -1  0  0
           timopt          -1
            typat      1  2
              wtk        0.00195    0.01563    0.01563    0.01563    0.00781    0.01172
                         0.04688    0.04688    0.04688    0.04688    0.04688    0.02344
                         0.01172    0.04688    0.04688    0.04688    0.02344    0.01172
                         0.04688    0.02344    0.00586    0.04688    0.09375    0.04688
                         0.04688    0.09375    0.04688    0.02344    0.01172
           xangst      0.0000000000E+00  0.0000000000E+00  0.0000000000E+00
                       1.0875000000E+00  1.0875000000E+00  1.0875000000E+00
            xcart      0.0000000000E+00  0.0000000000E+00  0.0000000000E+00
                       2.0550771695E+00  2.0550771695E+00  2.0550771695E+00
             xred      0.0000000000E+00  0.0000000000E+00  0.0000000000E+00
                       2.5000000000E-01  2.5000000000E-01  2.5000000000E-01
            znucl        6.00000   14.00000

================================================================================

 chkinp: Checking input parameters for consistency, jdtset=   1.

 chkinp: Checking input parameters for consistency, jdtset=   2.

 chkinp: Checking input parameters for consistency, jdtset=   3.

 chkinp: Checking input parameters for consistency, jdtset=   4.

 chkinp: Checking input parameters for consistency, jdtset=   5.

 chkinp: Checking input parameters for consistency, jdtset=   6.

 chkinp: Checking input parameters for consistency, jdtset=   7.

 chkinp: Checking input parameters for consistency, jdtset=   8.

 chkinp: Checking input parameters for consistency, jdtset=   9.

 chkinp: Checking input parameters for consistency, jdtset=  10.

================================================================================
== DATASET  1 ==================================================================
-   mpi_nproc: 512, omp_nthreads: -1 (-1 if OMP is not activated)


--- !DatasetInfo
iteration_state: {dtset: 1, }
dimensions: {natom: 2, nkpt: 29, mband: 480, nsppol: 1, nspinor: 1, nspden: 1, mpw: 1700, }
cutoff_energies: {ecut:  40.0, pawecutdg:  -1.0, }
electrons: {nelect:   8.00000000E+00, charge:   0.00000000E+00, occopt:   1.00000000E+00, tsmear:   1.00000000E-02, }
meta: {optdriver: 6, }
...

 mkfilename: getwfk from: ../outdata_gs_DS2_WFK

 mkfilename: getden from: ../outdata_gs_DS1_DEN

 Exchange-correlation functional for the present dataset will be:
  GGA: Perdew-Burke-Ernzerhof functional - ixc=11
 Citation for XC functional:
  J.P.Perdew, K.Burke, M.Ernzerhof, PRL 77, 3865 (1996)

.Using single precision arithmetic; gwpc =  4

- Reading GS density from: ../outdata_gs_DS1_DEN




--- Pseudopotential description ------------------------------------------------
- pspini: atom type   1  psp file is ../C.psp8
- pspatm: opening atomic psp file    ../C.psp8
- C     ONCVPSP-3.2.3.1  r_core=   1.20440   1.26326
-  6.00000   4.00000    170503                znucl, zion, pspdat
    8   11    1    4       600   0.00000      pspcod,pspxc,lmax,lloc,mmax,r2well
    5.99000000000000    4.00000000000000    0.00000000000000   rchrg,fchrg,qchrg
     nproj     2     2
     extension_switch     1
  pspatm : epsatm=    4.31347020
         --- l  ekb(1:nproj) -->
             0    6.481548    0.385504
             1   -4.199961   -0.877517
 pspatm: atomic psp has been read  and splines computed

- pspini: atom type   2  psp file is ../Si.psp8
- pspatm: opening atomic psp file    ../Si.psp8
- Si    ONCVPSP-3.2.3.1  r_core=   1.60303   1.72197   1.91712
- 14.00000   4.00000    170510                znucl, zion, pspdat
    8   11    2    4       600   0.00000      pspcod,pspxc,lmax,lloc,mmax,r2well
    5.99000000000000    4.00000000000000    0.00000000000000   rchrg,fchrg,qchrg
     nproj     2     2     2
     extension_switch     1
  pspatm : epsatm=    9.34321699
         --- l  ekb(1:nproj) -->
             0    5.168965    0.829883
             1    2.571282    0.578307
             2   -2.427311   -0.488097
 pspatm: atomic psp has been read  and splines computed

   1.09253498E+02                                ecore*ucvol(ha*bohr**3)
--------------------------------------------------------------------------------

 Total charge density [el/Bohr^3]
)     Maximum=    2.8063E-01  at reduced coord.    0.0556    0.0556    0.8611
)     Minimum=    1.4031E-03  at reduced coord.    0.2500    0.2500    0.2500
   Integrated=    8.0000E+00
- Reading GS states from WFK file: ../outdata_gs_DS2_WFK
  Mapping kBZ --> kIBZ
 Legend: bz = TS(ibz) + g0 where isym is the index of the symrec operation S and itim is 1 if TR is used.
        BZ                                       IBZ                                       ibz  isym  itim  g0
     1  [ 0.0000E+00,  0.0000E+00,  0.0000E+00]  [ 0.0000E+00,  0.0000E+00,  0.0000E+00]     1     1     0  [0, 0, 0]
     2  [ 1.2500E-01,  0.0000E+00,  0.0000E+00]  [ 1.2500E-01,  0.0000E+00,  0.0000E+00]     2     1     0  [0, 0, 0]
     3  [-1.2500E-01,  0.0000E+00,  0.0000E+00]  [ 1.2500E-01,  0.0000E+00,  0.0000E+00]     2     1     1  [0, 0, 0]
     4  [ 0.0000E+00,  0.0000E+00, -1.2500E-01]  [ 1.2500E-01,  0.0000E+00,  0.0000E+00]     2     2     1  [0, 0, 0]
     5  [ 0.0000E+00,  1.2500E-01,  0.0000E+00]  [ 1.2500E-01,  0.0000E+00,  0.0000E+00]     2     4     0  [0, 0, 0]
     6  [ 1.2500E-01,  1.2500E-01,  1.2500E-01]  [ 1.2500E-01,  0.0000E+00,  0.0000E+00]     2     3     1  [0, 0, 0]
     7  [-1.2500E-01, -1.2500E-01, -1.2500E-01]  [ 1.2500E-01,  0.0000E+00,  0.0000E+00]     2     3     0  [0, 0, 0]
     8  [ 0.0000E+00, -1.2500E-01,  0.0000E+00]  [ 1.2500E-01,  0.0000E+00,  0.0000E+00]     2     4     1  [0, 0, 0]
     9  [ 0.0000E+00,  0.0000E+00,  1.2500E-01]  [ 1.2500E-01,  0.0000E+00,  0.0000E+00]     2     2     0  [0, 0, 0]
    10  [ 2.5000E-01,  0.0000E+00,  0.0000E+00]  [ 2.5000E-01,  0.0000E+00,  0.0000E+00]     3     1     0  [0, 0, 0]
    11  [ 2.5000E-01,  2.5000E-01,  2.5000E-01]  [ 2.5000E-01,  0.0000E+00,  0.0000E+00]     3     3     1  [0, 0, 0]
    12  [ 0.0000E+00,  2.5000E-01,  0.0000E+00]  [ 2.5000E-01,  0.0000E+00,  0.0000E+00]     3     4     0  [0, 0, 0]
    13  [ 0.0000E+00, -2.5000E-01,  0.0000E+00]  [ 2.5000E-01,  0.0000E+00,  0.0000E+00]     3     4     1  [0, 0, 0]
    14  [-2.5000E-01,  0.0000E+00,  0.0000E+00]  [ 2.5000E-01,  0.0000E+00,  0.0000E+00]     3     1     1  [0, 0, 0]
    15  [ 0.0000E+00,  0.0000E+00,  2.5000E-01]  [ 2.5000E-01,  0.0000E+00,  0.0000E+00]     3     2     0  [0, 0, 0]
    16  [ 0.0000E+00,  0.0000E+00, -2.5000E-01]  [ 2.5000E-01,  0.0000E+00,  0.0000E+00]     3     2     1  [0, 0, 0]
    17  [-2.5000E-01, -2.5000E-01, -2.5000E-01]  [ 2.5000E-01,  0.0000E+00,  0.0000E+00]     3     3     0  [0, 0, 0]
    18  [ 3.7500E-01,  0.0000E+00,  0.0000E+00]  [ 3.7500E-01,  0.0000E+00,  0.0000E+00]     4     1     0  [0, 0, 0]
    19  [-3.7500E-01, -3.7500E-01, -3.7500E-01]  [ 3.7500E-01,  0.0000E+00,  0.0000E+00]     4     3     0  [0, 0, 0]
    20  [ 0.0000E+00,  0.0000E+00, -3.7500E-01]  [ 3.7500E-01,  0.0000E+00,  0.0000E+00]     4     2     1  [0, 0, 0]
prtvol = 0, max 20 points are written


  Mapping qBZ --> qIBZ
 Legend: bz = TS(ibz) + g0 where isym is the index of the symrec operation S and itim is 1 if TR is used.
        BZ                                       IBZ                                       ibz  isym  itim  g0
     1  [ 0.0000E+00,  0.0000E+00,  0.0000E+00]  [ 0.0000E+00,  0.0000E+00,  0.0000E+00]     1     1     0  [0, 0, 0]
     2  [ 1.2500E-01,  0.0000E+00,  0.0000E+00]  [ 1.2500E-01,  0.0000E+00,  0.0000E+00]     2     1     0  [0, 0, 0]
     3  [-1.2500E-01,  0.0000E+00,  0.0000E+00]  [ 1.2500E-01,  0.0000E+00,  0.0000E+00]     2     1     1  [0, 0, 0]
     4  [ 0.0000E+00,  0.0000E+00, -1.2500E-01]  [ 1.2500E-01,  0.0000E+00,  0.0000E+00]     2     2     1  [0, 0, 0]
     5  [ 0.0000E+00,  1.2500E-01,  0.0000E+00]  [ 1.2500E-01,  0.0000E+00,  0.0000E+00]     2     4     0  [0, 0, 0]
     6  [ 1.2500E-01,  1.2500E-01,  1.2500E-01]  [ 1.2500E-01,  0.0000E+00,  0.0000E+00]     2     3     1  [0, 0, 0]
     7  [-1.2500E-01, -1.2500E-01, -1.2500E-01]  [ 1.2500E-01,  0.0000E+00,  0.0000E+00]     2     3     0  [0, 0, 0]
     8  [ 0.0000E+00, -1.2500E-01,  0.0000E+00]  [ 1.2500E-01,  0.0000E+00,  0.0000E+00]     2     4     1  [0, 0, 0]
     9  [ 0.0000E+00,  0.0000E+00,  1.2500E-01]  [ 1.2500E-01,  0.0000E+00,  0.0000E+00]     2     2     0  [0, 0, 0]
    10  [ 2.5000E-01,  0.0000E+00,  0.0000E+00]  [ 2.5000E-01,  0.0000E+00,  0.0000E+00]     3     1     0  [0, 0, 0]
    11  [ 2.5000E-01,  2.5000E-01,  2.5000E-01]  [ 2.5000E-01,  0.0000E+00,  0.0000E+00]     3     3     1  [0, 0, 0]
    12  [ 0.0000E+00,  2.5000E-01,  0.0000E+00]  [ 2.5000E-01,  0.0000E+00,  0.0000E+00]     3     4     0  [0, 0, 0]
    13  [ 0.0000E+00, -2.5000E-01,  0.0000E+00]  [ 2.5000E-01,  0.0000E+00,  0.0000E+00]     3     4     1  [0, 0, 0]
    14  [-2.5000E-01,  0.0000E+00,  0.0000E+00]  [ 2.5000E-01,  0.0000E+00,  0.0000E+00]     3     1     1  [0, 0, 0]
    15  [ 0.0000E+00,  0.0000E+00,  2.5000E-01]  [ 2.5000E-01,  0.0000E+00,  0.0000E+00]     3     2     0  [0, 0, 0]
    16  [ 0.0000E+00,  0.0000E+00, -2.5000E-01]  [ 2.5000E-01,  0.0000E+00,  0.0000E+00]     3     2     1  [0, 0, 0]
    17  [-2.5000E-01, -2.5000E-01, -2.5000E-01]  [ 2.5000E-01,  0.0000E+00,  0.0000E+00]     3     3     0  [0, 0, 0]
    18  [ 3.7500E-01,  0.0000E+00,  0.0000E+00]  [ 3.7500E-01,  0.0000E+00,  0.0000E+00]     4     1     0  [0, 0, 0]
    19  [-3.7500E-01, -3.7500E-01, -3.7500E-01]  [ 3.7500E-01,  0.0000E+00,  0.0000E+00]     4     3     0  [0, 0, 0]
    20  [ 0.0000E+00,  0.0000E+00, -3.7500E-01]  [ 3.7500E-01,  0.0000E+00,  0.0000E+00]     4     2     1  [0, 0, 0]
prtvol = 0, max 20 points are written



 === Kohn-Sham gaps and band edges from IBZ mesh ===
 Indirect band gap semiconductor
 Fundamental gap:     1.357 (eV)
   VBM:    -0.678 (eV) at k: [ 0.0000E+00,  0.0000E+00,  0.0000E+00]
   CBM:     0.678 (eV) at k: [ 5.0000E-01,  5.0000E-01,  0.0000E+00]
 Direct gap:         4.559 (eV) at k: [ 5.0000E-01,  5.0000E-01,  0.0000E+00]


 ==== FFT mesh for Green's function ====
  FFT mesh divisions ........................    18   18   18
  Augmented FFT divisions ...................    18   18   18
  FFT algorithm .............................   312
  FFT cache size ............................    16
- FFT uc_batch_size: 4
- FFT sc_batch_size: 4
 ==== Info on the GWR object ====

--- !GWR_params
iteration_state: {dtset: 1, }
gwr_task: G0W0
nband: 480
ntau: 6
ngkpt: [8, 8, 8, ]
ngqpt: [8, 8, 8, ]
chi_algo: supercell
sigma_algo: 'BZ-convolutions'
nkibz: 29
nqibz: 29
inclvkb: 2
q0: [  1.00000000E-05,   2.00000000E-05,   3.00000000E-05, ]
gw_icutcoul: 6
green_mpw: 1700
tchi_mpw: 290
g_ngfft: [18, 18, 18, 18, 18, 18, ]
P gwr_np_kgts: [4, 64, 2, 1, ]
P np_kibz: [
    1, 1, 1, 1, 1, 1, 1, 1, 
    1, 2, 1, 1, 1, 1, 1, 1, 
    2, 1, 1, 1, 1, 1, 1, 2, 
    1, 1, 1, 1, 1, 
]
P np_qibz: [
    1, 1, 1, 1, 1, 1, 1, 1, 
    1, 2, 1, 1, 1, 1, 1, 1, 
    2, 1, 1, 1, 1, 1, 1, 2, 
    1, 1, 1, 1, 1, 
]
ft_max_err_t2w_cos:   1.35850167E-02
ft_max_err_w2t_cos:   1.21218642E-02
ft_max_err_t2w_sin:   5.11566351E-01
cosft_duality_error:   5.66498279E-04
Minimax imaginary tau/omega mesh: !Tabular | # tau, weight(tau), omega, weight(omega)
    1 3.73502E-02   1.04476E-01   2.01908E-02   4.28808E-02
    2 2.83724E-01   4.57169E-01   7.75470E-02   8.03159E-02
    3 1.19371E+00   1.55480E+00   2.10093E-01   2.09998E-01
    4 4.00739E+00   4.53794E+00   5.98242E-01   6.62405E-01
    5 1.17211E+01   1.19899E+01   1.97921E+00   2.58082E+00
    6 3.17702E+01   3.15837E+01   8.67171E+00   1.49279E+01
...


 Computing chi0 head and wings with inclvkb: 2
 Using KS orbitals and KS energies...


 ==== FFT mesh for chi0 head/wings computation ====
  FFT mesh divisions ........................    36   36   36
  Augmented FFT divisions ...................    37   37   36
  FFT algorithm .............................   312
  FFT cache size ............................    16

 Computing diagonal matrix elements of Sigma_x
 Using KS orbitals and KS energies...


 ==== FFT mesh for Sigma_x ====
  FFT mesh divisions ........................    36   36   36
  Augmented FFT divisions ...................    37   37   36
  FFT algorithm .............................   312
  FFT cache size ............................    16


 Building Green's functions from KS orbitals and KS energies...



 Building correlated screening Wc ...

--- !EMACRO_WITHOUT_LOCAL_FIELDS
iteration_state: {dtset: 1, }
'epsilon_{iw, q -> Gamma}(0,0)': !Tabular |
      2.01907643E-02    7.25844479E+00    3.69879725E-18
      7.75470419E-02    6.79978228E+00    3.21152831E-18
      2.10093272E-01    4.97424412E+00   -4.61085311E-19
      5.98241653E-01    2.23764038E+00   -8.03690544E-19
      1.97921439E+00    1.15949428E+00    2.48198257E-19
      8.67171021E+00    1.00932074E+00   -2.65637825E-21
...


--- !EMACRO_WITH_LOCAL_FIELDS
iteration_state: {dtset: 1, }
'epsilon_{iw, q -> Gamma}(0,0)': !Tabular |
      2.01907643E-02    1.50905371E-01    0.00000000E+00
      7.75470419E-02    1.60502315E-01    0.00000000E+00
      2.10093272E-01    2.15666264E-01    0.00000000E+00
      5.98241653E-01    4.60322559E-01    0.00000000E+00
      1.97921439E+00    8.64860773E-01    0.00000000E+00
      8.67171021E+00    9.90787089E-01    0.00000000E+00
...



 Building Sigma_c with convolutions in k-space:
================================================================================
 QP results (energies in eV)
 Notations:
     E0: Kohn-Sham energy
     <VxcDFT>: Matrix elements of Vxc[n_val] without non-linear core correction (if any)
     SigX: Matrix elements of Sigma_x
     SigC(E0): Matrix elements of Sigma_c at E0
     Z: Renormalization factor
     E-E0: Difference between the QP and the KS energy.
     E-Eprev: Difference between QP energy at iteration i and i-1
     E: Quasi-particle energy
     Occ(E): Occupancy of QP state
 
 

--- !GWR_SelfEnergy_ee
iteration_state: {dtset: 1, }
kpoint     : [   0.000,    0.000,    0.000, ]
spin       : 1
gwr_scf_iteration: 1
gwr_task   : G0W0
QP_VBM_band: 3
QP_CBM_band: 5
KS_gap     :    6.289
QP_gap     :    6.755
Delta_QP_KS:    0.466
data: !Tabular |
     Band       E0 <VxcDFT>     SigX SigC(E0)        Z     E-E0  E-Eprev        E   Occ(E)
        1  -16.131  -12.808  -21.885    9.025    0.587    0.404    0.404  -15.727    2.000
        2   -0.678  -14.945  -17.574    1.493    0.731   -0.831   -0.831   -1.509    2.000
        3   -0.678  -14.945  -17.574    1.493    0.731   -0.831   -0.831   -1.509    2.000
        4   -0.678  -14.945  -17.574    1.493    0.731   -0.831   -0.831   -1.509    2.000
        5    5.610  -13.222   -7.577   -6.116    0.723   -0.365   -0.365    5.246    0.000
        6    6.671  -11.345   -5.859   -5.853    0.756   -0.319   -0.319    6.352    0.000
        7    6.671  -11.345   -5.859   -5.853    0.756   -0.319   -0.319    6.352    0.000
        8    6.671  -11.345   -5.859   -5.853    0.756   -0.319   -0.319    6.352    0.000
...


--- !GWR_SelfEnergy_ee
iteration_state: {dtset: 1, }
kpoint     : [   0.500,    0.500,    0.000, ]
spin       : 1
gwr_scf_iteration: 1
gwr_task   : G0W0
QP_VBM_band: 4
QP_CBM_band: 5
KS_gap     :    4.559
QP_gap     :    5.244
Delta_QP_KS:    0.685
data: !Tabular |
     Band       E0 <VxcDFT>     SigX SigC(E0)        Z     E-E0  E-Eprev        E   Occ(E)
        1  -11.088  -14.356  -22.026    7.063    0.631   -0.295   -0.295  -11.383    2.000
        2   -8.498  -12.575  -18.228    5.116    0.655   -0.319   -0.319   -8.818    2.000
        3   -3.880  -13.585  -17.439    2.826    0.700   -0.721   -0.721   -4.601    2.000
        4   -3.880  -13.585  -17.439    2.826    0.700   -0.721   -0.721   -4.601    2.000
        5    0.678  -10.530   -6.454   -4.124    0.746   -0.035   -0.035    0.643    0.000
        6    3.675  -10.785   -6.005   -4.915    0.757   -0.105   -0.105    3.570    0.000
        7   13.386  -12.824   -4.755   -8.173    0.755   -0.375   -0.375   13.011    0.000
        8   13.386  -12.824   -4.755   -8.173    0.755   -0.375   -0.375   13.011    0.000
...


================================================================================
== DATASET  2 ==================================================================
-   mpi_nproc: 512, omp_nthreads: -1 (-1 if OMP is not activated)


--- !DatasetInfo
iteration_state: {dtset: 2, }
dimensions: {natom: 2, nkpt: 29, mband: 480, nsppol: 1, nspinor: 1, nspden: 1, mpw: 1700, }
cutoff_energies: {ecut:  40.0, pawecutdg:  -1.0, }
electrons: {nelect:   8.00000000E+00, charge:   0.00000000E+00, occopt:   1.00000000E+00, tsmear:   1.00000000E-02, }
meta: {optdriver: 6, }
...

 mkfilename: getwfk from: ../outdata_gs_DS2_WFK

 mkfilename: getden from: ../outdata_gs_DS1_DEN

 Exchange-correlation functional for the present dataset will be:
  GGA: Perdew-Burke-Ernzerhof functional - ixc=11
 Citation for XC functional:
  J.P.Perdew, K.Burke, M.Ernzerhof, PRL 77, 3865 (1996)

.Using single precision arithmetic; gwpc =  4

- Reading GS density from: ../outdata_gs_DS1_DEN



--------------------------------------------------------------------------------

 Total charge density [el/Bohr^3]
)     Maximum=    2.8063E-01  at reduced coord.    0.0556    0.0556    0.8611
)     Minimum=    1.4031E-03  at reduced coord.    0.2500    0.2500    0.2500
   Integrated=    8.0000E+00
- Reading GS states from WFK file: ../outdata_gs_DS2_WFK
  Mapping kBZ --> kIBZ
 Legend: bz = TS(ibz) + g0 where isym is the index of the symrec operation S and itim is 1 if TR is used.
        BZ                                       IBZ                                       ibz  isym  itim  g0
     1  [ 0.0000E+00,  0.0000E+00,  0.0000E+00]  [ 0.0000E+00,  0.0000E+00,  0.0000E+00]     1     1     0  [0, 0, 0]
     2  [ 1.2500E-01,  0.0000E+00,  0.0000E+00]  [ 1.2500E-01,  0.0000E+00,  0.0000E+00]     2     1     0  [0, 0, 0]
     3  [-1.2500E-01,  0.0000E+00,  0.0000E+00]  [ 1.2500E-01,  0.0000E+00,  0.0000E+00]     2     1     1  [0, 0, 0]
     4  [ 0.0000E+00,  0.0000E+00, -1.2500E-01]  [ 1.2500E-01,  0.0000E+00,  0.0000E+00]     2     2     1  [0, 0, 0]
     5  [ 0.0000E+00,  1.2500E-01,  0.0000E+00]  [ 1.2500E-01,  0.0000E+00,  0.0000E+00]     2     4     0  [0, 0, 0]
     6  [ 1.2500E-01,  1.2500E-01,  1.2500E-01]  [ 1.2500E-01,  0.0000E+00,  0.0000E+00]     2     3     1  [0, 0, 0]
     7  [-1.2500E-01, -1.2500E-01, -1.2500E-01]  [ 1.2500E-01,  0.0000E+00,  0.0000E+00]     2     3     0  [0, 0, 0]
     8  [ 0.0000E+00, -1.2500E-01,  0.0000E+00]  [ 1.2500E-01,  0.0000E+00,  0.0000E+00]     2     4     1  [0, 0, 0]
     9  [ 0.0000E+00,  0.0000E+00,  1.2500E-01]  [ 1.2500E-01,  0.0000E+00,  0.0000E+00]     2     2     0  [0, 0, 0]
    10  [ 2.5000E-01,  0.0000E+00,  0.0000E+00]  [ 2.5000E-01,  0.0000E+00,  0.0000E+00]     3     1     0  [0, 0, 0]
    11  [ 2.5000E-01,  2.5000E-01,  2.5000E-01]  [ 2.5000E-01,  0.0000E+00,  0.0000E+00]     3     3     1  [0, 0, 0]
    12  [ 0.0000E+00,  2.5000E-01,  0.0000E+00]  [ 2.5000E-01,  0.0000E+00,  0.0000E+00]     3     4     0  [0, 0, 0]
    13  [ 0.0000E+00, -2.5000E-01,  0.0000E+00]  [ 2.5000E-01,  0.0000E+00,  0.0000E+00]     3     4     1  [0, 0, 0]
    14  [-2.5000E-01,  0.0000E+00,  0.0000E+00]  [ 2.5000E-01,  0.0000E+00,  0.0000E+00]     3     1     1  [0, 0, 0]
    15  [ 0.0000E+00,  0.0000E+00,  2.5000E-01]  [ 2.5000E-01,  0.0000E+00,  0.0000E+00]     3     2     0  [0, 0, 0]
    16  [ 0.0000E+00,  0.0000E+00, -2.5000E-01]  [ 2.5000E-01,  0.0000E+00,  0.0000E+00]     3     2     1  [0, 0, 0]
    17  [-2.5000E-01, -2.5000E-01, -2.5000E-01]  [ 2.5000E-01,  0.0000E+00,  0.0000E+00]     3     3     0  [0, 0, 0]
    18  [ 3.7500E-01,  0.0000E+00,  0.0000E+00]  [ 3.7500E-01,  0.0000E+00,  0.0000E+00]     4     1     0  [0, 0, 0]
    19  [-3.7500E-01, -3.7500E-01, -3.7500E-01]  [ 3.7500E-01,  0.0000E+00,  0.0000E+00]     4     3     0  [0, 0, 0]
    20  [ 0.0000E+00,  0.0000E+00, -3.7500E-01]  [ 3.7500E-01,  0.0000E+00,  0.0000E+00]     4     2     1  [0, 0, 0]
prtvol = 0, max 20 points are written


  Mapping qBZ --> qIBZ
 Legend: bz = TS(ibz) + g0 where isym is the index of the symrec operation S and itim is 1 if TR is used.
        BZ                                       IBZ                                       ibz  isym  itim  g0
     1  [ 0.0000E+00,  0.0000E+00,  0.0000E+00]  [ 0.0000E+00,  0.0000E+00,  0.0000E+00]     1     1     0  [0, 0, 0]
     2  [ 1.2500E-01,  0.0000E+00,  0.0000E+00]  [ 1.2500E-01,  0.0000E+00,  0.0000E+00]     2     1     0  [0, 0, 0]
     3  [-1.2500E-01,  0.0000E+00,  0.0000E+00]  [ 1.2500E-01,  0.0000E+00,  0.0000E+00]     2     1     1  [0, 0, 0]
     4  [ 0.0000E+00,  0.0000E+00, -1.2500E-01]  [ 1.2500E-01,  0.0000E+00,  0.0000E+00]     2     2     1  [0, 0, 0]
     5  [ 0.0000E+00,  1.2500E-01,  0.0000E+00]  [ 1.2500E-01,  0.0000E+00,  0.0000E+00]     2     4     0  [0, 0, 0]
     6  [ 1.2500E-01,  1.2500E-01,  1.2500E-01]  [ 1.2500E-01,  0.0000E+00,  0.0000E+00]     2     3     1  [0, 0, 0]
     7  [-1.2500E-01, -1.2500E-01, -1.2500E-01]  [ 1.2500E-01,  0.0000E+00,  0.0000E+00]     2     3     0  [0, 0, 0]
     8  [ 0.0000E+00, -1.2500E-01,  0.0000E+00]  [ 1.2500E-01,  0.0000E+00,  0.0000E+00]     2     4     1  [0, 0, 0]
     9  [ 0.0000E+00,  0.0000E+00,  1.2500E-01]  [ 1.2500E-01,  0.0000E+00,  0.0000E+00]     2     2     0  [0, 0, 0]
    10  [ 2.5000E-01,  0.0000E+00,  0.0000E+00]  [ 2.5000E-01,  0.0000E+00,  0.0000E+00]     3     1     0  [0, 0, 0]
    11  [ 2.5000E-01,  2.5000E-01,  2.5000E-01]  [ 2.5000E-01,  0.0000E+00,  0.0000E+00]     3     3     1  [0, 0, 0]
    12  [ 0.0000E+00,  2.5000E-01,  0.0000E+00]  [ 2.5000E-01,  0.0000E+00,  0.0000E+00]     3     4     0  [0, 0, 0]
    13  [ 0.0000E+00, -2.5000E-01,  0.0000E+00]  [ 2.5000E-01,  0.0000E+00,  0.0000E+00]     3     4     1  [0, 0, 0]
    14  [-2.5000E-01,  0.0000E+00,  0.0000E+00]  [ 2.5000E-01,  0.0000E+00,  0.0000E+00]     3     1     1  [0, 0, 0]
    15  [ 0.0000E+00,  0.0000E+00,  2.5000E-01]  [ 2.5000E-01,  0.0000E+00,  0.0000E+00]     3     2     0  [0, 0, 0]
    16  [ 0.0000E+00,  0.0000E+00, -2.5000E-01]  [ 2.5000E-01,  0.0000E+00,  0.0000E+00]     3     2     1  [0, 0, 0]
    17  [-2.5000E-01, -2.5000E-01, -2.5000E-01]  [ 2.5000E-01,  0.0000E+00,  0.0000E+00]     3     3     0  [0, 0, 0]
    18  [ 3.7500E-01,  0.0000E+00,  0.0000E+00]  [ 3.7500E-01,  0.0000E+00,  0.0000E+00]     4     1     0  [0, 0, 0]
    19  [-3.7500E-01, -3.7500E-01, -3.7500E-01]  [ 3.7500E-01,  0.0000E+00,  0.0000E+00]     4     3     0  [0, 0, 0]
    20  [ 0.0000E+00,  0.0000E+00, -3.7500E-01]  [ 3.7500E-01,  0.0000E+00,  0.0000E+00]     4     2     1  [0, 0, 0]
prtvol = 0, max 20 points are written



 === Kohn-Sham gaps and band edges from IBZ mesh ===
 Indirect band gap semiconductor
 Fundamental gap:     1.357 (eV)
   VBM:    -0.678 (eV) at k: [ 0.0000E+00,  0.0000E+00,  0.0000E+00]
   CBM:     0.678 (eV) at k: [ 5.0000E-01,  5.0000E-01,  0.0000E+00]
 Direct gap:         4.559 (eV) at k: [ 5.0000E-01,  5.0000E-01,  0.0000E+00]


 ==== FFT mesh for Green's function ====
  FFT mesh divisions ........................    18   18   18
  Augmented FFT divisions ...................    18   18   18
  FFT algorithm .............................   312
  FFT cache size ............................    16
- FFT uc_batch_size: 4
- FFT sc_batch_size: 4
 ==== Info on the GWR object ====

--- !GWR_params
iteration_state: {dtset: 2, }
gwr_task: G0W0
nband: 480
ntau: 8
ngkpt: [8, 8, 8, ]
ngqpt: [8, 8, 8, ]
chi_algo: supercell
sigma_algo: 'BZ-convolutions'
nkibz: 29
nqibz: 29
inclvkb: 2
q0: [  1.00000000E-05,   2.00000000E-05,   3.00000000E-05, ]
gw_icutcoul: 6
green_mpw: 1700
tchi_mpw: 290
g_ngfft: [18, 18, 18, 18, 18, 18, ]
P gwr_np_kgts: [4, 64, 2, 1, ]
P np_kibz: [
    1, 1, 1, 1, 1, 1, 1, 1, 
    1, 2, 1, 1, 1, 1, 1, 1, 
    2, 1, 1, 1, 1, 1, 1, 2, 
    1, 1, 1, 1, 1, 
]
P np_qibz: [
    1, 1, 1, 1, 1, 1, 1, 1, 
    1, 2, 1, 1, 1, 1, 1, 1, 
    2, 1, 1, 1, 1, 1, 1, 2, 
    1, 1, 1, 1, 1, 
]
ft_max_err_t2w_cos:   6.38219153E-03
ft_max_err_w2t_cos:   1.14787580E-03
ft_max_err_t2w_sin:   1.50083751E-01
cosft_duality_error:   8.97284421E-04
Minimax imaginary tau/omega mesh: !Tabular | # tau, weight(tau), omega, weight(omega)
    1 2.53375E-02   6.74311E-02   1.66076E-02   3.45830E-02
    2 1.57808E-01   2.17108E-01   5.86807E-02   5.34176E-02
    3 5.28612E-01   5.78154E-01   1.34592E-01   1.06612E-01
    4 1.47711E+00   1.43658E+00   2.98160E-01   2.41125E-01
    5 3.74596E+00   3.34429E+00   6.86904E-01   5.94038E-01
    6 8.86581E+00   7.38711E+00   1.69502E+00   1.60385E+00
    7 1.99618E+01   1.58622E+01   4.61578E+00   4.92740E+00
    8 4.42278E+01   3.60770E+01   1.51468E+01   2.10435E+01
...


 Computing chi0 head and wings with inclvkb: 2
 Using KS orbitals and KS energies...


 ==== FFT mesh for chi0 head/wings computation ====
  FFT mesh divisions ........................    36   36   36
  Augmented FFT divisions ...................    37   37   36
  FFT algorithm .............................   312
  FFT cache size ............................    16

 Computing diagonal matrix elements of Sigma_x
 Using KS orbitals and KS energies...


 ==== FFT mesh for Sigma_x ====
  FFT mesh divisions ........................    36   36   36
  Augmented FFT divisions ...................    37   37   36
  FFT algorithm .............................   312
  FFT cache size ............................    16


 Building Green's functions from KS orbitals and KS energies...



 Building correlated screening Wc ...

--- !EMACRO_WITHOUT_LOCAL_FIELDS
iteration_state: {dtset: 2, }
'epsilon_{iw, q -> Gamma}(0,0)': !Tabular |
      1.66076421E-02    7.27031088E+00    6.47522619E-19
      5.86806978E-02    6.99961233E+00    4.31846555E-18
      1.34592378E-01    6.03595972E+00    3.48429484E-18
      2.98159653E-01    3.96315932E+00    5.38990432E-18
      6.86903884E-01    2.00229549E+00   -1.38144963E-18
      1.69501605E+00    1.21215618E+00   -2.48713978E-19
      4.61577861E+00    1.03194940E+00    4.32854325E-21
      1.51468299E+01    1.00309265E+00    2.53489458E-21
...


--- !EMACRO_WITH_LOCAL_FIELDS
iteration_state: {dtset: 2, }
'epsilon_{iw, q -> Gamma}(0,0)': !Tabular |
      1.66076421E-02    1.50673136E-01    0.00000000E+00
      5.86806978E-02    1.56170249E-01    0.00000000E+00
      1.34592378E-01    1.79624289E-01    0.00000000E+00
      2.98159653E-01    2.67426848E-01    0.00000000E+00
      6.86903884E-01    5.11795521E-01    0.00000000E+00
      1.69501605E+00    8.28418016E-01    0.00000000E+00
      4.61577861E+00    9.69242334E-01    0.00000000E+00
      1.51468299E+01    9.96919632E-01    0.00000000E+00
...



 Building Sigma_c with convolutions in k-space:
================================================================================
 QP results (energies in eV)
 Notations:
     E0: Kohn-Sham energy
     <VxcDFT>: Matrix elements of Vxc[n_val] without non-linear core correction (if any)
     SigX: Matrix elements of Sigma_x
     SigC(E0): Matrix elements of Sigma_c at E0
     Z: Renormalization factor
     E-E0: Difference between the QP and the KS energy.
     E-Eprev: Difference between QP energy at iteration i and i-1
     E: Quasi-particle energy
     Occ(E): Occupancy of QP state
 
 

--- !GWR_SelfEnergy_ee
iteration_state: {dtset: 2, }
kpoint     : [   0.000,    0.000,    0.000, ]
spin       : 1
gwr_scf_iteration: 1
gwr_task   : G0W0
QP_VBM_band: 3
QP_CBM_band: 5
KS_gap     :    6.289
QP_gap     :    7.396
Delta_QP_KS:    1.107
data: !Tabular |
     Band       E0 <VxcDFT>     SigX SigC(E0)        Z     E-E0  E-Eprev        E   Occ(E)
        1  -16.131  -12.808  -21.885    7.621    0.664   -0.918   -0.918  -17.049    2.000
        2   -0.678  -14.945  -17.574    1.429    0.792   -0.951   -0.951   -1.629    2.000
        3   -0.678  -14.945  -17.574    1.429    0.792   -0.951   -0.951   -1.629    2.000
        4   -0.678  -14.945  -17.574    1.429    0.792   -0.951   -0.951   -1.629    2.000
        5    5.610  -13.222   -7.577   -5.449    0.796    0.157    0.157    5.767    0.000
        6    6.671  -11.345   -5.859   -5.204    0.809    0.227    0.227    6.899    0.000
        7    6.671  -11.345   -5.859   -5.204    0.809    0.227    0.227    6.899    0.000
        8    6.671  -11.345   -5.859   -5.204    0.809    0.227    0.227    6.899    0.000
...


--- !GWR_SelfEnergy_ee
iteration_state: {dtset: 2, }
kpoint     : [   0.500,    0.500,    0.000, ]
spin       : 1
gwr_scf_iteration: 1
gwr_task   : G0W0
QP_VBM_band: 4
QP_CBM_band: 5
KS_gap     :    4.559
QP_gap     :    5.777
Delta_QP_KS:    1.218
data: !Tabular |
     Band       E0 <VxcDFT>     SigX SigC(E0)        Z     E-E0  E-Eprev        E   Occ(E)
        1  -11.088  -14.356  -22.026    5.887    0.706   -1.247   -1.247  -12.335    2.000
        2   -8.498  -12.575  -18.228    3.987    0.742   -1.235   -1.235   -9.733    2.000
        3   -3.880  -13.585  -17.439    2.329    0.780   -1.189   -1.189   -5.070    2.000
        4   -3.880  -13.585  -17.439    2.329    0.780   -1.189   -1.189   -5.070    2.000
        5    0.678  -10.530   -6.454   -4.041    0.826    0.029    0.029    0.707    0.000
        6    3.675  -10.785   -6.005   -4.518    0.829    0.217    0.217    3.892    0.000
        7   13.386  -12.824   -4.755   -7.686    0.737    0.278    0.278   13.664    0.000
        8   13.386  -12.824   -4.755   -7.686    0.737    0.278    0.278   13.664    0.000
...


================================================================================
== DATASET  3 ==================================================================
-   mpi_nproc: 512, omp_nthreads: -1 (-1 if OMP is not activated)


--- !DatasetInfo
iteration_state: {dtset: 3, }
dimensions: {natom: 2, nkpt: 29, mband: 480, nsppol: 1, nspinor: 1, nspden: 1, mpw: 1700, }
cutoff_energies: {ecut:  40.0, pawecutdg:  -1.0, }
electrons: {nelect:   8.00000000E+00, charge:   0.00000000E+00, occopt:   1.00000000E+00, tsmear:   1.00000000E-02, }
meta: {optdriver: 6, }
...

 mkfilename: getwfk from: ../outdata_gs_DS2_WFK

 mkfilename: getden from: ../outdata_gs_DS1_DEN

 Exchange-correlation functional for the present dataset will be:
  GGA: Perdew-Burke-Ernzerhof functional - ixc=11
 Citation for XC functional:
  J.P.Perdew, K.Burke, M.Ernzerhof, PRL 77, 3865 (1996)

.Using single precision arithmetic; gwpc =  4

- Reading GS density from: ../outdata_gs_DS1_DEN



--------------------------------------------------------------------------------

 Total charge density [el/Bohr^3]
)     Maximum=    2.8063E-01  at reduced coord.    0.0556    0.0556    0.8611
)     Minimum=    1.4031E-03  at reduced coord.    0.2500    0.2500    0.2500
   Integrated=    8.0000E+00
- Reading GS states from WFK file: ../outdata_gs_DS2_WFK
  Mapping kBZ --> kIBZ
 Legend: bz = TS(ibz) + g0 where isym is the index of the symrec operation S and itim is 1 if TR is used.
        BZ                                       IBZ                                       ibz  isym  itim  g0
     1  [ 0.0000E+00,  0.0000E+00,  0.0000E+00]  [ 0.0000E+00,  0.0000E+00,  0.0000E+00]     1     1     0  [0, 0, 0]
     2  [ 1.2500E-01,  0.0000E+00,  0.0000E+00]  [ 1.2500E-01,  0.0000E+00,  0.0000E+00]     2     1     0  [0, 0, 0]
     3  [-1.2500E-01,  0.0000E+00,  0.0000E+00]  [ 1.2500E-01,  0.0000E+00,  0.0000E+00]     2     1     1  [0, 0, 0]
     4  [ 0.0000E+00,  0.0000E+00, -1.2500E-01]  [ 1.2500E-01,  0.0000E+00,  0.0000E+00]     2     2     1  [0, 0, 0]
     5  [ 0.0000E+00,  1.2500E-01,  0.0000E+00]  [ 1.2500E-01,  0.0000E+00,  0.0000E+00]     2     4     0  [0, 0, 0]
     6  [ 1.2500E-01,  1.2500E-01,  1.2500E-01]  [ 1.2500E-01,  0.0000E+00,  0.0000E+00]     2     3     1  [0, 0, 0]
     7  [-1.2500E-01, -1.2500E-01, -1.2500E-01]  [ 1.2500E-01,  0.0000E+00,  0.0000E+00]     2     3     0  [0, 0, 0]
     8  [ 0.0000E+00, -1.2500E-01,  0.0000E+00]  [ 1.2500E-01,  0.0000E+00,  0.0000E+00]     2     4     1  [0, 0, 0]
     9  [ 0.0000E+00,  0.0000E+00,  1.2500E-01]  [ 1.2500E-01,  0.0000E+00,  0.0000E+00]     2     2     0  [0, 0, 0]
    10  [ 2.5000E-01,  0.0000E+00,  0.0000E+00]  [ 2.5000E-01,  0.0000E+00,  0.0000E+00]     3     1     0  [0, 0, 0]
    11  [ 2.5000E-01,  2.5000E-01,  2.5000E-01]  [ 2.5000E-01,  0.0000E+00,  0.0000E+00]     3     3     1  [0, 0, 0]
    12  [ 0.0000E+00,  2.5000E-01,  0.0000E+00]  [ 2.5000E-01,  0.0000E+00,  0.0000E+00]     3     4     0  [0, 0, 0]
    13  [ 0.0000E+00, -2.5000E-01,  0.0000E+00]  [ 2.5000E-01,  0.0000E+00,  0.0000E+00]     3     4     1  [0, 0, 0]
    14  [-2.5000E-01,  0.0000E+00,  0.0000E+00]  [ 2.5000E-01,  0.0000E+00,  0.0000E+00]     3     1     1  [0, 0, 0]
    15  [ 0.0000E+00,  0.0000E+00,  2.5000E-01]  [ 2.5000E-01,  0.0000E+00,  0.0000E+00]     3     2     0  [0, 0, 0]
    16  [ 0.0000E+00,  0.0000E+00, -2.5000E-01]  [ 2.5000E-01,  0.0000E+00,  0.0000E+00]     3     2     1  [0, 0, 0]
    17  [-2.5000E-01, -2.5000E-01, -2.5000E-01]  [ 2.5000E-01,  0.0000E+00,  0.0000E+00]     3     3     0  [0, 0, 0]
    18  [ 3.7500E-01,  0.0000E+00,  0.0000E+00]  [ 3.7500E-01,  0.0000E+00,  0.0000E+00]     4     1     0  [0, 0, 0]
    19  [-3.7500E-01, -3.7500E-01, -3.7500E-01]  [ 3.7500E-01,  0.0000E+00,  0.0000E+00]     4     3     0  [0, 0, 0]
    20  [ 0.0000E+00,  0.0000E+00, -3.7500E-01]  [ 3.7500E-01,  0.0000E+00,  0.0000E+00]     4     2     1  [0, 0, 0]
prtvol = 0, max 20 points are written


  Mapping qBZ --> qIBZ
 Legend: bz = TS(ibz) + g0 where isym is the index of the symrec operation S and itim is 1 if TR is used.
        BZ                                       IBZ                                       ibz  isym  itim  g0
     1  [ 0.0000E+00,  0.0000E+00,  0.0000E+00]  [ 0.0000E+00,  0.0000E+00,  0.0000E+00]     1     1     0  [0, 0, 0]
     2  [ 1.2500E-01,  0.0000E+00,  0.0000E+00]  [ 1.2500E-01,  0.0000E+00,  0.0000E+00]     2     1     0  [0, 0, 0]
     3  [-1.2500E-01,  0.0000E+00,  0.0000E+00]  [ 1.2500E-01,  0.0000E+00,  0.0000E+00]     2     1     1  [0, 0, 0]
     4  [ 0.0000E+00,  0.0000E+00, -1.2500E-01]  [ 1.2500E-01,  0.0000E+00,  0.0000E+00]     2     2     1  [0, 0, 0]
     5  [ 0.0000E+00,  1.2500E-01,  0.0000E+00]  [ 1.2500E-01,  0.0000E+00,  0.0000E+00]     2     4     0  [0, 0, 0]
     6  [ 1.2500E-01,  1.2500E-01,  1.2500E-01]  [ 1.2500E-01,  0.0000E+00,  0.0000E+00]     2     3     1  [0, 0, 0]
     7  [-1.2500E-01, -1.2500E-01, -1.2500E-01]  [ 1.2500E-01,  0.0000E+00,  0.0000E+00]     2     3     0  [0, 0, 0]
     8  [ 0.0000E+00, -1.2500E-01,  0.0000E+00]  [ 1.2500E-01,  0.0000E+00,  0.0000E+00]     2     4     1  [0, 0, 0]
     9  [ 0.0000E+00,  0.0000E+00,  1.2500E-01]  [ 1.2500E-01,  0.0000E+00,  0.0000E+00]     2     2     0  [0, 0, 0]
    10  [ 2.5000E-01,  0.0000E+00,  0.0000E+00]  [ 2.5000E-01,  0.0000E+00,  0.0000E+00]     3     1     0  [0, 0, 0]
    11  [ 2.5000E-01,  2.5000E-01,  2.5000E-01]  [ 2.5000E-01,  0.0000E+00,  0.0000E+00]     3     3     1  [0, 0, 0]
    12  [ 0.0000E+00,  2.5000E-01,  0.0000E+00]  [ 2.5000E-01,  0.0000E+00,  0.0000E+00]     3     4     0  [0, 0, 0]
    13  [ 0.0000E+00, -2.5000E-01,  0.0000E+00]  [ 2.5000E-01,  0.0000E+00,  0.0000E+00]     3     4     1  [0, 0, 0]
    14  [-2.5000E-01,  0.0000E+00,  0.0000E+00]  [ 2.5000E-01,  0.0000E+00,  0.0000E+00]     3     1     1  [0, 0, 0]
    15  [ 0.0000E+00,  0.0000E+00,  2.5000E-01]  [ 2.5000E-01,  0.0000E+00,  0.0000E+00]     3     2     0  [0, 0, 0]
    16  [ 0.0000E+00,  0.0000E+00, -2.5000E-01]  [ 2.5000E-01,  0.0000E+00,  0.0000E+00]     3     2     1  [0, 0, 0]
    17  [-2.5000E-01, -2.5000E-01, -2.5000E-01]  [ 2.5000E-01,  0.0000E+00,  0.0000E+00]     3     3     0  [0, 0, 0]
    18  [ 3.7500E-01,  0.0000E+00,  0.0000E+00]  [ 3.7500E-01,  0.0000E+00,  0.0000E+00]     4     1     0  [0, 0, 0]
    19  [-3.7500E-01, -3.7500E-01, -3.7500E-01]  [ 3.7500E-01,  0.0000E+00,  0.0000E+00]     4     3     0  [0, 0, 0]
    20  [ 0.0000E+00,  0.0000E+00, -3.7500E-01]  [ 3.7500E-01,  0.0000E+00,  0.0000E+00]     4     2     1  [0, 0, 0]
prtvol = 0, max 20 points are written



 === Kohn-Sham gaps and band edges from IBZ mesh ===
 Indirect band gap semiconductor
 Fundamental gap:     1.357 (eV)
   VBM:    -0.678 (eV) at k: [ 0.0000E+00,  0.0000E+00,  0.0000E+00]
   CBM:     0.678 (eV) at k: [ 5.0000E-01,  5.0000E-01,  0.0000E+00]
 Direct gap:         4.559 (eV) at k: [ 5.0000E-01,  5.0000E-01,  0.0000E+00]


 ==== FFT mesh for Green's function ====
  FFT mesh divisions ........................    18   18   18
  Augmented FFT divisions ...................    18   18   18
  FFT algorithm .............................   312
  FFT cache size ............................    16
- FFT uc_batch_size: 4
- FFT sc_batch_size: 4
 ==== Info on the GWR object ====

--- !GWR_params
iteration_state: {dtset: 3, }
gwr_task: G0W0
nband: 480
ntau: 10
ngkpt: [8, 8, 8, ]
ngqpt: [8, 8, 8, ]
chi_algo: supercell
sigma_algo: 'BZ-convolutions'
nkibz: 29
nqibz: 29
inclvkb: 2
q0: [  1.00000000E-05,   2.00000000E-05,   3.00000000E-05, ]
gw_icutcoul: 6
green_mpw: 1700
tchi_mpw: 290
g_ngfft: [18, 18, 18, 18, 18, 18, ]
P gwr_np_kgts: [4, 64, 2, 1, ]
P np_kibz: [
    1, 1, 1, 1, 1, 1, 1, 1, 
    1, 2, 1, 1, 1, 1, 1, 1, 
    2, 1, 1, 1, 1, 1, 1, 2, 
    1, 1, 1, 1, 1, 
]
P np_qibz: [
    1, 1, 1, 1, 1, 1, 1, 1, 
    1, 2, 1, 1, 1, 1, 1, 1, 
    2, 1, 1, 1, 1, 1, 1, 2, 
    1, 1, 1, 1, 1, 
]
ft_max_err_t2w_cos:   1.88560866E-03
ft_max_err_w2t_cos:   3.87118555E-04
ft_max_err_t2w_sin:   4.26322187E-02
cosft_duality_error:   4.28123447E-04
Minimax imaginary tau/omega mesh: !Tabular | # tau, weight(tau), omega, weight(omega)
    1 1.93806E-02   5.07417E-02   1.40629E-02   2.89454E-02
    2 1.11831E-01   1.41657E-01   4.73640E-02   3.97338E-02
    3 3.28654E-01   3.12057E-01   9.89455E-02   6.70461E-02
    4 7.95728E-01   6.64062E-01   1.91715E-01   1.25724E-01
    5 1.77424E+00   1.37273E+00   3.71789E-01   2.49976E-01
    6 3.76019E+00   2.74612E+00   7.39132E-01   5.20112E-01
    7 7.66632E+00   5.33307E+00   1.52359E+00   1.13450E+00
    8 1.51555E+01   1.01384E+01   3.29059E+00   2.62694E+00
    9 2.93537E+01   1.92832E+01   7.60785E+00   6.76901E+00
    10 5.72897E+01   3.99864E+01   2.09397E+01   2.58227E+01
...


 Computing chi0 head and wings with inclvkb: 2
 Using KS orbitals and KS energies...


 ==== FFT mesh for chi0 head/wings computation ====
  FFT mesh divisions ........................    36   36   36
  Augmented FFT divisions ...................    37   37   36
  FFT algorithm .............................   312
  FFT cache size ............................    16

 Computing diagonal matrix elements of Sigma_x
 Using KS orbitals and KS energies...


 ==== FFT mesh for Sigma_x ====
  FFT mesh divisions ........................    36   36   36
  Augmented FFT divisions ...................    37   37   36
  FFT algorithm .............................   312
  FFT cache size ............................    16


 Building Green's functions from KS orbitals and KS energies...



 Building correlated screening Wc ...

--- !EMACRO_WITHOUT_LOCAL_FIELDS
iteration_state: {dtset: 3, }
'epsilon_{iw, q -> Gamma}(0,0)': !Tabular |
      1.40629122E-02    7.27736044E+00   -8.53585458E-18
      4.73639977E-02    7.09876680E+00    1.31167663E-18
      9.89454597E-02    6.53325796E+00    3.84265347E-18
      1.91714977E-01    5.22133684E+00    2.54821130E-19
      3.71789147E-01    3.33691645E+00   -3.41682255E-18
      7.39131564E-01    1.89280128E+00   -3.10289070E-19
      1.52358615E+00    1.25757790E+00   -2.08455654E-20
      3.29058641E+00    1.06124544E+00   -2.42351140E-20
      7.60785211E+00    1.01205611E+00   -4.70184566E-21
      2.09397468E+01    1.00162411E+00    1.24840002E-21
...


--- !EMACRO_WITH_LOCAL_FIELDS
iteration_state: {dtset: 3, }
'epsilon_{iw, q -> Gamma}(0,0)': !Tabular |
      1.40629122E-02    1.50535226E-01    0.00000000E+00
      4.73639977E-02    1.54109463E-01    0.00000000E+00
      9.89454597E-02    1.66679069E-01    0.00000000E+00
      1.91714977E-01    2.06005186E-01    0.00000000E+00
      3.71789147E-01    3.14795911E-01    0.00000000E+00
      7.39131564E-01    5.40032327E-01    0.00000000E+00
      1.52358615E+00    7.99475551E-01    0.00000000E+00
      3.29058641E+00    9.42888319E-01    0.00000000E+00
      7.60785211E+00    9.88122404E-01    0.00000000E+00
      2.09397468E+01    9.98379290E-01    0.00000000E+00
...



 Building Sigma_c with convolutions in k-space:
================================================================================
 QP results (energies in eV)
 Notations:
     E0: Kohn-Sham energy
     <VxcDFT>: Matrix elements of Vxc[n_val] without non-linear core correction (if any)
     SigX: Matrix elements of Sigma_x
     SigC(E0): Matrix elements of Sigma_c at E0
     Z: Renormalization factor
     E-E0: Difference between the QP and the KS energy.
     E-Eprev: Difference between QP energy at iteration i and i-1
     E: Quasi-particle energy
     Occ(E): Occupancy of QP state
 
 

--- !GWR_SelfEnergy_ee
iteration_state: {dtset: 3, }
kpoint     : [   0.000,    0.000,    0.000, ]
spin       : 1
gwr_scf_iteration: 1
gwr_task   : G0W0
QP_VBM_band: 3
QP_CBM_band: 5
KS_gap     :    6.289
QP_gap     :    7.282
Delta_QP_KS:    0.993
data: !Tabular |
     Band       E0 <VxcDFT>     SigX SigC(E0)        Z     E-E0  E-Eprev        E   Occ(E)
        1  -16.131  -12.808  -21.885    7.506    0.683   -0.988   -0.988  -17.119    2.000
        2   -0.678  -14.945  -17.574    1.442    0.780   -0.926   -0.926   -1.604    2.000
        3   -0.678  -14.945  -17.574    1.442    0.780   -0.926   -0.926   -1.604    2.000
        4   -0.678  -14.945  -17.574    1.442    0.780   -0.926   -0.926   -1.604    2.000
        5    5.610  -13.222   -7.577   -5.557    0.786    0.068    0.068    5.678    0.000
        6    6.671  -11.345   -5.859   -5.298    0.804    0.149    0.149    6.820    0.000
        7    6.671  -11.345   -5.859   -5.298    0.804    0.149    0.149    6.820    0.000
        8    6.671  -11.345   -5.859   -5.298    0.804    0.149    0.149    6.820    0.000
...


--- !GWR_SelfEnergy_ee
iteration_state: {dtset: 3, }
kpoint     : [   0.500,    0.500,    0.000, ]
spin       : 1
gwr_scf_iteration: 1
gwr_task   : G0W0
QP_VBM_band: 4
QP_CBM_band: 5
KS_gap     :    4.559
QP_gap     :    5.688
Delta_QP_KS:    1.129
data: !Tabular |
     Band       E0 <VxcDFT>     SigX SigC(E0)        Z     E-E0  E-Eprev        E   Occ(E)
        1  -11.088  -14.356  -22.026    5.922    0.709   -1.217   -1.217  -12.305    2.000
        2   -8.498  -12.575  -18.228    4.069    0.744   -1.170   -1.170   -9.668    2.000
        3   -3.880  -13.585  -17.439    2.408    0.771   -1.113   -1.113   -4.994    2.000
        4   -3.880  -13.585  -17.439    2.408    0.771   -1.113   -1.113   -4.994    2.000
        5    0.678  -10.530   -6.454   -4.055    0.810    0.016    0.016    0.695    0.000
        6    3.675  -10.785   -6.005   -4.585    0.817    0.159    0.159    3.834    0.000
        7   13.386  -12.824   -4.755   -7.591    0.757    0.353    0.353   13.739    0.000
        8   13.386  -12.824   -4.755   -7.591    0.757    0.353    0.353   13.739    0.000
...


================================================================================
== DATASET  4 ==================================================================
-   mpi_nproc: 512, omp_nthreads: -1 (-1 if OMP is not activated)


--- !DatasetInfo
iteration_state: {dtset: 4, }
dimensions: {natom: 2, nkpt: 29, mband: 480, nsppol: 1, nspinor: 1, nspden: 1, mpw: 1700, }
cutoff_energies: {ecut:  40.0, pawecutdg:  -1.0, }
electrons: {nelect:   8.00000000E+00, charge:   0.00000000E+00, occopt:   1.00000000E+00, tsmear:   1.00000000E-02, }
meta: {optdriver: 6, }
...

 mkfilename: getwfk from: ../outdata_gs_DS2_WFK

 mkfilename: getden from: ../outdata_gs_DS1_DEN

 Exchange-correlation functional for the present dataset will be:
  GGA: Perdew-Burke-Ernzerhof functional - ixc=11
 Citation for XC functional:
  J.P.Perdew, K.Burke, M.Ernzerhof, PRL 77, 3865 (1996)

.Using single precision arithmetic; gwpc =  4

- Reading GS density from: ../outdata_gs_DS1_DEN



--------------------------------------------------------------------------------

 Total charge density [el/Bohr^3]
)     Maximum=    2.8063E-01  at reduced coord.    0.0556    0.0556    0.8611
)     Minimum=    1.4031E-03  at reduced coord.    0.2500    0.2500    0.2500
   Integrated=    8.0000E+00
- Reading GS states from WFK file: ../outdata_gs_DS2_WFK
  Mapping kBZ --> kIBZ
 Legend: bz = TS(ibz) + g0 where isym is the index of the symrec operation S and itim is 1 if TR is used.
        BZ                                       IBZ                                       ibz  isym  itim  g0
     1  [ 0.0000E+00,  0.0000E+00,  0.0000E+00]  [ 0.0000E+00,  0.0000E+00,  0.0000E+00]     1     1     0  [0, 0, 0]
     2  [ 1.2500E-01,  0.0000E+00,  0.0000E+00]  [ 1.2500E-01,  0.0000E+00,  0.0000E+00]     2     1     0  [0, 0, 0]
     3  [-1.2500E-01,  0.0000E+00,  0.0000E+00]  [ 1.2500E-01,  0.0000E+00,  0.0000E+00]     2     1     1  [0, 0, 0]
     4  [ 0.0000E+00,  0.0000E+00, -1.2500E-01]  [ 1.2500E-01,  0.0000E+00,  0.0000E+00]     2     2     1  [0, 0, 0]
     5  [ 0.0000E+00,  1.2500E-01,  0.0000E+00]  [ 1.2500E-01,  0.0000E+00,  0.0000E+00]     2     4     0  [0, 0, 0]
     6  [ 1.2500E-01,  1.2500E-01,  1.2500E-01]  [ 1.2500E-01,  0.0000E+00,  0.0000E+00]     2     3     1  [0, 0, 0]
     7  [-1.2500E-01, -1.2500E-01, -1.2500E-01]  [ 1.2500E-01,  0.0000E+00,  0.0000E+00]     2     3     0  [0, 0, 0]
     8  [ 0.0000E+00, -1.2500E-01,  0.0000E+00]  [ 1.2500E-01,  0.0000E+00,  0.0000E+00]     2     4     1  [0, 0, 0]
     9  [ 0.0000E+00,  0.0000E+00,  1.2500E-01]  [ 1.2500E-01,  0.0000E+00,  0.0000E+00]     2     2     0  [0, 0, 0]
    10  [ 2.5000E-01,  0.0000E+00,  0.0000E+00]  [ 2.5000E-01,  0.0000E+00,  0.0000E+00]     3     1     0  [0, 0, 0]
    11  [ 2.5000E-01,  2.5000E-01,  2.5000E-01]  [ 2.5000E-01,  0.0000E+00,  0.0000E+00]     3     3     1  [0, 0, 0]
    12  [ 0.0000E+00,  2.5000E-01,  0.0000E+00]  [ 2.5000E-01,  0.0000E+00,  0.0000E+00]     3     4     0  [0, 0, 0]
    13  [ 0.0000E+00, -2.5000E-01,  0.0000E+00]  [ 2.5000E-01,  0.0000E+00,  0.0000E+00]     3     4     1  [0, 0, 0]
    14  [-2.5000E-01,  0.0000E+00,  0.0000E+00]  [ 2.5000E-01,  0.0000E+00,  0.0000E+00]     3     1     1  [0, 0, 0]
    15  [ 0.0000E+00,  0.0000E+00,  2.5000E-01]  [ 2.5000E-01,  0.0000E+00,  0.0000E+00]     3     2     0  [0, 0, 0]
    16  [ 0.0000E+00,  0.0000E+00, -2.5000E-01]  [ 2.5000E-01,  0.0000E+00,  0.0000E+00]     3     2     1  [0, 0, 0]
    17  [-2.5000E-01, -2.5000E-01, -2.5000E-01]  [ 2.5000E-01,  0.0000E+00,  0.0000E+00]     3     3     0  [0, 0, 0]
    18  [ 3.7500E-01,  0.0000E+00,  0.0000E+00]  [ 3.7500E-01,  0.0000E+00,  0.0000E+00]     4     1     0  [0, 0, 0]
    19  [-3.7500E-01, -3.7500E-01, -3.7500E-01]  [ 3.7500E-01,  0.0000E+00,  0.0000E+00]     4     3     0  [0, 0, 0]
    20  [ 0.0000E+00,  0.0000E+00, -3.7500E-01]  [ 3.7500E-01,  0.0000E+00,  0.0000E+00]     4     2     1  [0, 0, 0]
prtvol = 0, max 20 points are written


  Mapping qBZ --> qIBZ
 Legend: bz = TS(ibz) + g0 where isym is the index of the symrec operation S and itim is 1 if TR is used.
        BZ                                       IBZ                                       ibz  isym  itim  g0
     1  [ 0.0000E+00,  0.0000E+00,  0.0000E+00]  [ 0.0000E+00,  0.0000E+00,  0.0000E+00]     1     1     0  [0, 0, 0]
     2  [ 1.2500E-01,  0.0000E+00,  0.0000E+00]  [ 1.2500E-01,  0.0000E+00,  0.0000E+00]     2     1     0  [0, 0, 0]
     3  [-1.2500E-01,  0.0000E+00,  0.0000E+00]  [ 1.2500E-01,  0.0000E+00,  0.0000E+00]     2     1     1  [0, 0, 0]
     4  [ 0.0000E+00,  0.0000E+00, -1.2500E-01]  [ 1.2500E-01,  0.0000E+00,  0.0000E+00]     2     2     1  [0, 0, 0]
     5  [ 0.0000E+00,  1.2500E-01,  0.0000E+00]  [ 1.2500E-01,  0.0000E+00,  0.0000E+00]     2     4     0  [0, 0, 0]
     6  [ 1.2500E-01,  1.2500E-01,  1.2500E-01]  [ 1.2500E-01,  0.0000E+00,  0.0000E+00]     2     3     1  [0, 0, 0]
     7  [-1.2500E-01, -1.2500E-01, -1.2500E-01]  [ 1.2500E-01,  0.0000E+00,  0.0000E+00]     2     3     0  [0, 0, 0]
     8  [ 0.0000E+00, -1.2500E-01,  0.0000E+00]  [ 1.2500E-01,  0.0000E+00,  0.0000E+00]     2     4     1  [0, 0, 0]
     9  [ 0.0000E+00,  0.0000E+00,  1.2500E-01]  [ 1.2500E-01,  0.0000E+00,  0.0000E+00]     2     2     0  [0, 0, 0]
    10  [ 2.5000E-01,  0.0000E+00,  0.0000E+00]  [ 2.5000E-01,  0.0000E+00,  0.0000E+00]     3     1     0  [0, 0, 0]
    11  [ 2.5000E-01,  2.5000E-01,  2.5000E-01]  [ 2.5000E-01,  0.0000E+00,  0.0000E+00]     3     3     1  [0, 0, 0]
    12  [ 0.0000E+00,  2.5000E-01,  0.0000E+00]  [ 2.5000E-01,  0.0000E+00,  0.0000E+00]     3     4     0  [0, 0, 0]
    13  [ 0.0000E+00, -2.5000E-01,  0.0000E+00]  [ 2.5000E-01,  0.0000E+00,  0.0000E+00]     3     4     1  [0, 0, 0]
    14  [-2.5000E-01,  0.0000E+00,  0.0000E+00]  [ 2.5000E-01,  0.0000E+00,  0.0000E+00]     3     1     1  [0, 0, 0]
    15  [ 0.0000E+00,  0.0000E+00,  2.5000E-01]  [ 2.5000E-01,  0.0000E+00,  0.0000E+00]     3     2     0  [0, 0, 0]
    16  [ 0.0000E+00,  0.0000E+00, -2.5000E-01]  [ 2.5000E-01,  0.0000E+00,  0.0000E+00]     3     2     1  [0, 0, 0]
    17  [-2.5000E-01, -2.5000E-01, -2.5000E-01]  [ 2.5000E-01,  0.0000E+00,  0.0000E+00]     3     3     0  [0, 0, 0]
    18  [ 3.7500E-01,  0.0000E+00,  0.0000E+00]  [ 3.7500E-01,  0.0000E+00,  0.0000E+00]     4     1     0  [0, 0, 0]
    19  [-3.7500E-01, -3.7500E-01, -3.7500E-01]  [ 3.7500E-01,  0.0000E+00,  0.0000E+00]     4     3     0  [0, 0, 0]
    20  [ 0.0000E+00,  0.0000E+00, -3.7500E-01]  [ 3.7500E-01,  0.0000E+00,  0.0000E+00]     4     2     1  [0, 0, 0]
prtvol = 0, max 20 points are written



 === Kohn-Sham gaps and band edges from IBZ mesh ===
 Indirect band gap semiconductor
 Fundamental gap:     1.357 (eV)
   VBM:    -0.678 (eV) at k: [ 0.0000E+00,  0.0000E+00,  0.0000E+00]
   CBM:     0.678 (eV) at k: [ 5.0000E-01,  5.0000E-01,  0.0000E+00]
 Direct gap:         4.559 (eV) at k: [ 5.0000E-01,  5.0000E-01,  0.0000E+00]


 ==== FFT mesh for Green's function ====
  FFT mesh divisions ........................    18   18   18
  Augmented FFT divisions ...................    18   18   18
  FFT algorithm .............................   312
  FFT cache size ............................    16
- FFT uc_batch_size: 4
- FFT sc_batch_size: 4
 ==== Info on the GWR object ====

--- !GWR_params
iteration_state: {dtset: 4, }
gwr_task: G0W0
nband: 480
ntau: 12
ngkpt: [8, 8, 8, ]
ngqpt: [8, 8, 8, ]
chi_algo: supercell
sigma_algo: 'BZ-convolutions'
nkibz: 29
nqibz: 29
inclvkb: 2
q0: [  1.00000000E-05,   2.00000000E-05,   3.00000000E-05, ]
gw_icutcoul: 6
green_mpw: 1700
tchi_mpw: 290
g_ngfft: [18, 18, 18, 18, 18, 18, ]
P gwr_np_kgts: [4, 64, 2, 1, ]
P np_kibz: [
    1, 1, 1, 1, 1, 1, 1, 1, 
    1, 2, 1, 1, 1, 1, 1, 1, 
    2, 1, 1, 1, 1, 1, 1, 2, 
    1, 1, 1, 1, 1, 
]
P np_qibz: [
    1, 1, 1, 1, 1, 1, 1, 1, 
    1, 2, 1, 1, 1, 1, 1, 1, 
    2, 1, 1, 1, 1, 1, 1, 2, 
    1, 1, 1, 1, 1, 
]
ft_max_err_t2w_cos:   6.22605444E-04
ft_max_err_w2t_cos:   2.99596688E-05
ft_max_err_t2w_sin:   1.18449685E-02
cosft_duality_error:   1.90666745E-03
Minimax imaginary tau/omega mesh: !Tabular | # tau, weight(tau), omega, weight(omega)
    1 1.57352E-02   4.08995E-02   1.22215E-02   2.49754E-02
    2 8.77599E-02   1.06737E-01   3.99784E-02   3.18047E-02
    3 2.41109E-01   2.08985E-01   7.89233E-02   4.80226E-02
    4 5.32353E-01   3.92002E-01   1.41119E-01   7.97225E-02
    5 1.07571E+00   7.28183E-01   2.47514E-01   1.39244E-01
    6 2.07747E+00   1.33301E+00   4.36828E-01   2.51220E-01
    7 3.89307E+00   2.39583E+00   7.83557E-01   4.65696E-01
    8 7.12391E+00   4.22970E+00   1.43610E+00   8.87627E-01
    9 1.27801E+01   7.35904E+00   2.70209E+00   1.74907E+00
    10 2.25758E+01   1.27194E+01   5.26179E+00   3.62545E+00
    11 3.96009E+01   2.23360E+01   1.08791E+01   8.47498E+00
    12 7.07901E+01   4.34595E+01   2.71539E+01   3.14020E+01
...


 Computing chi0 head and wings with inclvkb: 2
 Using KS orbitals and KS energies...


 ==== FFT mesh for chi0 head/wings computation ====
  FFT mesh divisions ........................    36   36   36
  Augmented FFT divisions ...................    37   37   36
  FFT algorithm .............................   312
  FFT cache size ............................    16

 Computing diagonal matrix elements of Sigma_x
 Using KS orbitals and KS energies...


 ==== FFT mesh for Sigma_x ====
  FFT mesh divisions ........................    36   36   36
  Augmented FFT divisions ...................    37   37   36
  FFT algorithm .............................   312
  FFT cache size ............................    16


 Building Green's functions from KS orbitals and KS energies...



 Building correlated screening Wc ...

--- !EMACRO_WITHOUT_LOCAL_FIELDS
iteration_state: {dtset: 4, }
'epsilon_{iw, q -> Gamma}(0,0)': !Tabular |
      1.22214764E-02    7.28174210E+00   -4.79466557E-18
      3.99784408E-02    7.15373516E+00    1.47927356E-18
      7.89232651E-02    6.78376007E+00   -7.97927205E-18
      1.41118889E-01    5.94170189E+00   -1.22810488E-17
      2.47513798E-01    4.50802326E+00    3.37960728E-18
      4.36828121E-01    2.91755795E+00   -2.15357300E-18
      7.83557484E-01    1.81280971E+00    1.12119576E-18
      1.43609762E+00    1.28658307E+00   -2.76913858E-19
      2.70209365E+00    1.08905232E+00    1.38347470E-19
      5.26179329E+00    1.02478063E+00   -1.78534996E-20
      1.08791173E+01    1.00595844E+00    1.81929046E-21
      2.71539083E+01    1.00096750E+00    6.65044276E-22
...


--- !EMACRO_WITH_LOCAL_FIELDS
iteration_state: {dtset: 4, }
'epsilon_{iw, q -> Gamma}(0,0)': !Tabular |
      1.22214764E-02    1.50449693E-01    0.00000000E+00
      3.99784408E-02    1.52990818E-01    0.00000000E+00
      7.89232651E-02    1.60859510E-01    0.00000000E+00
      1.41118889E-01    1.82315215E-01    0.00000000E+00
      2.47513798E-01    2.36716747E-01    0.00000000E+00
      4.36828121E-01    3.57611269E-01    0.00000000E+00
      7.83557484E-01    5.62784374E-01    0.00000000E+00
      1.43609762E+00    7.82072246E-01    0.00000000E+00
      2.70209365E+00    9.19298232E-01    0.00000000E+00
      5.26179329E+00    9.75948513E-01    0.00000000E+00
      1.08791173E+01    9.94086266E-01    0.00000000E+00
      2.71539083E+01    9.99033689E-01    0.00000000E+00
...



 Building Sigma_c with convolutions in k-space:
================================================================================
 QP results (energies in eV)
 Notations:
     E0: Kohn-Sham energy
     <VxcDFT>: Matrix elements of Vxc[n_val] without non-linear core correction (if any)
     SigX: Matrix elements of Sigma_x
     SigC(E0): Matrix elements of Sigma_c at E0
     Z: Renormalization factor
     E-E0: Difference between the QP and the KS energy.
     E-Eprev: Difference between QP energy at iteration i and i-1
     E: Quasi-particle energy
     Occ(E): Occupancy of QP state
 
 

--- !GWR_SelfEnergy_ee
iteration_state: {dtset: 4, }
kpoint     : [   0.000,    0.000,    0.000, ]
spin       : 1
gwr_scf_iteration: 1
gwr_task   : G0W0
QP_VBM_band: 3
QP_CBM_band: 5
KS_gap     :    6.289
QP_gap     :    7.315
Delta_QP_KS:    1.026
data: !Tabular |
     Band       E0 <VxcDFT>     SigX SigC(E0)        Z     E-E0  E-Eprev        E   Occ(E)
        1  -16.131  -12.808  -21.885    7.551    0.678   -0.948   -0.948  -17.079    2.000
[...]
                       0.000000  0.000000  0.000000  0.000000  0.000000  0.000000
                       0.000000  0.000000  0.000000  0.000000  0.000000  0.000000
                       0.000000  0.000000  0.000000  0.000000  0.000000  0.000000
                       0.000000  0.000000  0.000000  0.000000  0.000000  0.000000
                       0.000000  0.000000  0.000000  0.000000  0.000000  0.000000
                       0.000000  0.000000  0.000000  0.000000  0.000000  0.000000
                       0.000000  0.000000  0.000000  0.000000  0.000000  0.000000
                       0.000000  0.000000  0.000000  0.000000  0.000000  0.000000
                       0.000000  0.000000  0.000000  0.000000  0.000000  0.000000
                       0.000000  0.000000  0.000000  0.000000  0.000000  0.000000
                       0.000000  0.000000  0.000000  0.000000  0.000000  0.000000
                       0.000000  0.000000  0.000000  0.000000  0.000000  0.000000
                       0.000000  0.000000  0.000000  0.000000  0.000000  0.000000
                       0.000000  0.000000  0.000000  0.000000  0.000000  0.000000
                       0.000000  0.000000  0.000000  0.000000  0.000000  0.000000
                       0.000000  0.000000  0.000000  0.000000  0.000000  0.000000
                       0.000000  0.000000  0.000000  0.000000  0.000000  0.000000
                       0.000000  0.000000  0.000000  0.000000  0.000000  0.000000
                       0.000000  0.000000  0.000000  0.000000  0.000000  0.000000
                       0.000000  0.000000  0.000000  0.000000  0.000000  0.000000
                       0.000000  0.000000  0.000000  0.000000  0.000000  0.000000
                       0.000000  0.000000  0.000000  0.000000  0.000000  0.000000
                       0.000000  0.000000  0.000000  0.000000  0.000000  0.000000
                       0.000000  0.000000  0.000000  0.000000  0.000000  0.000000
                       0.000000  0.000000  0.000000  0.000000  0.000000  0.000000
                       0.000000  0.000000  0.000000  0.000000  0.000000  0.000000
                       0.000000  0.000000  0.000000  0.000000  0.000000  0.000000
                       0.000000  0.000000  0.000000  0.000000  0.000000  0.000000
                       0.000000  0.000000  0.000000  0.000000  0.000000  0.000000
                       0.000000  0.000000  0.000000  0.000000  0.000000  0.000000
                       0.000000  0.000000  0.000000  0.000000  0.000000  0.000000
                       0.000000  0.000000  0.000000  0.000000  0.000000  0.000000
                       0.000000  0.000000  0.000000  0.000000  0.000000  0.000000
                       0.000000  0.000000  0.000000  0.000000  0.000000  0.000000
                       0.000000  0.000000  0.000000  0.000000  0.000000  0.000000
                       0.000000  0.000000  0.000000  0.000000  0.000000  0.000000
                       0.000000  0.000000  0.000000  0.000000  0.000000  0.000000
        optdriver           6
            rprim      0.0000000000E+00  5.0000000000E-01  5.0000000000E-01
                       5.0000000000E-01  0.0000000000E+00  5.0000000000E-01
                       5.0000000000E-01  5.0000000000E-01  0.0000000000E+00
          spgroup         216
           strten1     0.0000000000E+00  0.0000000000E+00  0.0000000000E+00
                       0.0000000000E+00  0.0000000000E+00  0.0000000000E+00
           strten2     0.0000000000E+00  0.0000000000E+00  0.0000000000E+00
                       0.0000000000E+00  0.0000000000E+00  0.0000000000E+00
           strten3     0.0000000000E+00  0.0000000000E+00  0.0000000000E+00
                       0.0000000000E+00  0.0000000000E+00  0.0000000000E+00
           strten4     0.0000000000E+00  0.0000000000E+00  0.0000000000E+00
                       0.0000000000E+00  0.0000000000E+00  0.0000000000E+00
           strten5     0.0000000000E+00  0.0000000000E+00  0.0000000000E+00
                       0.0000000000E+00  0.0000000000E+00  0.0000000000E+00
           strten6     0.0000000000E+00  0.0000000000E+00  0.0000000000E+00
                       0.0000000000E+00  0.0000000000E+00  0.0000000000E+00
           strten7     0.0000000000E+00  0.0000000000E+00  0.0000000000E+00
                       0.0000000000E+00  0.0000000000E+00  0.0000000000E+00
           strten8     0.0000000000E+00  0.0000000000E+00  0.0000000000E+00
                       0.0000000000E+00  0.0000000000E+00  0.0000000000E+00
           strten9     0.0000000000E+00  0.0000000000E+00  0.0000000000E+00
                       0.0000000000E+00  0.0000000000E+00  0.0000000000E+00
           strten10    0.0000000000E+00  0.0000000000E+00  0.0000000000E+00
                       0.0000000000E+00  0.0000000000E+00  0.0000000000E+00
           symrel      1  0  0   0  1  0   0  0  1       0 -1  1   0 -1  0   1 -1  0
                      -1  0  0  -1  0  1  -1  1  0       0  1 -1   1  0 -1   0  0 -1
                      -1  0  0  -1  1  0  -1  0  1       0 -1  1   1 -1  0   0 -1  0
                       1  0  0   0  0  1   0  1  0       0  1 -1   0  0 -1   1  0 -1
                      -1  0  1  -1  1  0  -1  0  0       0 -1  0   1 -1  0   0 -1  1
                       1  0 -1   0  0 -1   0  1 -1       0  1  0   0  0  1   1  0  0
                       1  0 -1   0  1 -1   0  0 -1       0 -1  0   0 -1  1   1 -1  0
                      -1  0  1  -1  0  0  -1  1  0       0  1  0   1  0  0   0  0  1
                       0  0 -1   0  1 -1   1  0 -1       1 -1  0   0 -1  1   0 -1  0
                       0  0  1   1  0  0   0  1  0      -1  1  0  -1  0  0  -1  0  1
                       0  0  1   0  1  0   1  0  0       1 -1  0   0 -1  0   0 -1  1
                       0  0 -1   1  0 -1   0  1 -1      -1  1  0  -1  0  1  -1  0  0
           timopt          -1
            typat      1  2
              wtk        0.00195    0.01563    0.01563    0.01563    0.00781    0.01172
                         0.04688    0.04688    0.04688    0.04688    0.04688    0.02344
                         0.01172    0.04688    0.04688    0.04688    0.02344    0.01172
                         0.04688    0.02344    0.00586    0.04688    0.09375    0.04688
                         0.04688    0.09375    0.04688    0.02344    0.01172
           xangst      0.0000000000E+00  0.0000000000E+00  0.0000000000E+00
                       1.0875000000E+00  1.0875000000E+00  1.0875000000E+00
            xcart      0.0000000000E+00  0.0000000000E+00  0.0000000000E+00
                       2.0550771695E+00  2.0550771695E+00  2.0550771695E+00
             xred      0.0000000000E+00  0.0000000000E+00  0.0000000000E+00
                       2.5000000000E-01  2.5000000000E-01  2.5000000000E-01
            znucl        6.00000   14.00000

================================================================================

 Test the timer : 
  a combined call timab(*,1,tsec) + timab(*,2,tsec) is 
- CPU time =    6.0414E-07 sec,    Wall time =    6.0381E-07 sec

- Total cpu        time (s,m,h):     615832.1    10263.87    171.064
- Total wall clock time (s,m,h):     616173.8    10269.56    171.159
-
- For major independent code sections, cpu and wall times (sec),
-  as well as % of the time and number of calls for node 0
-
-<BEGIN_TIMER mpi_nprocs = 512, omp_nthreads = 1, mpi_rank = 0>
- cpu_time =         1201.4, wall_time =         1203.5
-
- routine                            cpu     %          wall     %      number of calls Gflops    Speedup Efficacity
-                                                                        (-1=no count)
- gwr_build_tchi                  901.221   0.1       902.030   0.1             10      -1.00        1.00       1.00
- gwr_build_sigmac                191.930   0.0       192.204   0.0             10      -1.00        1.00       1.00
- gwr_gk_to_scbox                 133.160   0.0       133.304   0.0           1725      -1.00        1.00       1.00
- gsph2box                         83.744   0.0        83.963   0.0        1766400      -1.00        1.00       1.00
- gwr_build_head_wings             55.899   0.0        55.930   0.0             10      -1.00        1.00       1.00
- gwr_build_green                  23.948   0.0        23.957   0.0             10      -1.00        1.00       1.00
- gwr_init                         11.293   0.0        11.481   0.0             20      -1.00        0.98       0.98
- gwr_build_wc                      7.654   0.0         7.724   0.0             10      -1.00        0.99       0.99
- gwr_read_ugb_from_wfk             3.103   0.0         3.241   0.0             10      -1.00        0.96       0.96
- pspini                            0.668   0.0         0.674   0.0             10      -1.00        0.99       0.99
- others (145)                      1.778   0.0         1.880   0.0             -1      -1.00        0.95       0.95
-<END_TIMER>
-
- subtotal                       1414.399   0.2      1416.389   0.2                                  1.00       1.00

- For major independent code sections, cpu and wall times (sec),
- as well as % of the total time and number of calls 

-<BEGIN_TIMER mpi_nprocs = 512, omp_nthreads = 1, mpi_rank = world>
- cpu_time =      615832.1, wall_time =      616173.8
-
- routine                            cpu     %          wall     %      number of calls Gflops    Speedup Efficacity
-                                                                        (-1=no count)
- gwr_build_tchi               463505.961  75.3    463585.129  75.2           5120      -1.00        1.00       1.00
- gwr_build_sigmac              98400.648  16.0     98413.005  16.0           5120      -1.00        1.00       1.00
- gwr_gk_to_scbox               82541.965  13.4     82550.894  13.4         874800      -1.00        1.00       1.00
- gsph2box                      52703.242   8.6     52797.768   8.6      895795200      -1.00        1.00       1.00
- gwr_build_head_wings          28205.932   4.6     28242.916   4.6           5120      -1.00        1.00       1.00
- gwr_build_green                9557.885   1.6      9558.939   1.6           5120      -1.00        1.00       1.00
- gwr_init                       5649.232   0.9      5740.814   0.9          10240      -1.00        0.98       0.98
- gwr_build_wc                   4285.957   0.7      4297.957   0.7           5120      -1.00        1.00       1.00
- gwr_read_ugb_from_wfk          2007.609   0.3      2053.883   0.3           5120      -1.00        0.98       0.98
- pspini                          339.697   0.1       341.977   0.1           5120      -1.00        0.99       0.99
- kpgsph                          272.636   0.0       271.896   0.0       22377250      -1.00        1.00       1.00
- xc:pot/=fourdp                  109.877   0.0       110.006   0.0          10240      -1.00        1.00       1.00
- invars2                         103.180   0.0       103.217   0.0           5120      -1.00        1.00       1.00
- fourdp                          101.536   0.0       113.692   0.0          97280      -1.00        0.89       0.89
- wfd_read_wfk                     70.393   0.0        70.835   0.0           5120      -1.00        0.99       0.99
- abinit(2)                        64.452   0.0        65.220   0.0            512      -1.00        0.99       0.99
- timing timab                     60.034   0.0        60.041   0.0           7168      -1.00        1.00       1.00
- ewald                            52.541   0.0        52.558   0.0           5120      -1.00        1.00       1.00
- mkcore                           32.814   0.0        32.822   0.0           5120      -1.00        1.00       1.00
- mkffnl                           13.245   0.0        13.198   0.0          37120      -1.00        1.00       1.00
- others (135)                      0.106   0.0         0.107   0.0             -1      -1.00        0.99       0.99
-<END_TIMER>

- subtotal                     748078.942 121.5    748476.875 121.5                                  1.00       1.00

 Partitioning of abinit
- abinit                       615832.141 100.0    616173.844 100.0            512                   1.00       1.00
 
- abinit(1)                       110.803   0.0       123.648   0.0            512                   0.90       0.90
- abinit(4)                       249.089   0.0       258.576   0.0            512                   0.96       0.96
- driver                       615458.697  99.9    615779.950  99.9            512                   1.00       1.00

- subtotal                     615832.141 100.0    616173.844 100.0                                  1.00       1.00

 Partitioning of driver
- driver                       615458.697  99.9    615779.950  99.9            512                   1.00       1.00
 
- (other)                      615432.813  99.9    615729.794  99.9             -1                   1.00       1.00

- subtotal                     615458.697  99.9    615779.950  99.9                                  1.00       1.00

 Partitioning of  fourdp (upwards partitioning)
- fourdp                          101.536   0.0       113.692   0.0          97280                   0.89       0.89
 

- subtotal                        101.536   0.0       113.692   0.0                                  0.89       0.89
-
-Synchronisation (=leave_test) and MPI calls 
- communic.MPI                      4.057   0.0         4.145   0.0            512                   0.98       0.98
-
- subtotal                          0.000   0.0         0.000   0.0                                  0.00       0.00

 Additional information
- timana(1)                         0.556   0.0         0.568   0.0            512                   0.98       0.98
- total timab                     614.110   0.1       614.178   0.1     1019028274                   1.00       1.00
- xc:fourdp                        61.414   0.0        61.309   0.0          81920                   1.00       1.00
- read_rho                         20.703   0.0        21.004   0.0           5120                   0.99       0.99

 timana : in multi dataset mode, the more detailed analysis is not done.

================================================================================

 Suggested references for the acknowledgment of ABINIT usage.

 The users of ABINIT have little formal obligations with respect to the ABINIT group
 (those specified in the GNU General Public License, http://www.gnu.org/copyleft/gpl.txt).
 However, it is common practice in the scientific literature,
 to acknowledge the efforts of people that have made the research possible.
 In this spirit, please find below suggested citations of work written by ABINIT developers,
 corresponding to implementations inside of ABINIT that you have used in the present run.
 Note also that it will be of great value to readers of publications presenting these results,
 to read papers enabling them to understand the theoretical formalism and details
 of the ABINIT implementation.
 For information on why they are suggested, see also https://docs.abinit.org/theory/acknowledgments.
-
- [1] The Abinit project: Impact, environment and recent developments.
- Computer Phys. Comm. 248, 107042 (2020).
- X.Gonze, B. Amadon, G. Antonius, F.Arnardi, L.Baguet, J.-M.Beuken,
- J.Bieder, F.Bottin, J.Bouchet, E.Bousquet, N.Brouwer, F.Bruneval,
- G.Brunin, T.Cavignac, J.-B. Charraud, Wei Chen, M.Cote, S.Cottenier,
- J.Denier, G.Geneste, Ph.Ghosez, M.Giantomassi, Y.Gillet, O.Gingras,
- D.R.Hamann, G.Hautier, Xu He, N.Helbig, N.Holzwarth, Y.Jia, F.Jollet,
- W.Lafargue-Dit-Hauret, K.Lejaeghere, M.A.L.Marques, A.Martin, C.Martins,
- H.P.C. Miranda, F.Naccarato, K. Persson, G.Petretto, V.Planes, Y.Pouillon,
- S.Prokhorenko, F.Ricci, G.-M.Rignanese, A.H.Romero, M.M.Schmitt, M.Torrent,
- M.J.van Setten, B.Van Troeye, M.J.Verstraete, G.Zerah and J.W.Zwanzig
- Comment: the fifth generic paper describing the ABINIT project.
- Note that a version of this paper, that is not formatted for Computer Phys. Comm. 
- is available at https://www.abinit.org/sites/default/files/ABINIT20.pdf .
- The licence allows the authors to put it on the Web.
- DOI and bibtex: see https://docs.abinit.org/theory/bibliography/#gonze2020
-
- [2] Optimized norm-conserving Vanderbilt pseudopotentials.
- D.R. Hamann, Phys. Rev. B 88, 085117 (2013).
- Comment: Some pseudopotential generated using the ONCVPSP code were used.
- DOI and bibtex: see https://docs.abinit.org/theory/bibliography/#hamann2013
-
- [3] ABINIT: Overview, and focus on selected capabilities
- J. Chem. Phys. 152, 124102 (2020).
- A. Romero, D.C. Allan, B. Amadon, G. Antonius, T. Applencourt, L.Baguet,
- J.Bieder, F.Bottin, J.Bouchet, E.Bousquet, F.Bruneval,
- G.Brunin, D.Caliste, M.Cote,
- J.Denier, C. Dreyer, Ph.Ghosez, M.Giantomassi, Y.Gillet, O.Gingras,
- D.R.Hamann, G.Hautier, F.Jollet, G. Jomard,
- A.Martin, 
- H.P.C. Miranda, F.Naccarato, G.Petretto, N.A. Pike, V.Planes,
- S.Prokhorenko, T. Rangel, F.Ricci, G.-M.Rignanese, M.Royo, M.Stengel, M.Torrent,
- M.J.van Setten, B.Van Troeye, M.J.Verstraete, J.Wiktor, J.W.Zwanziger, and X.Gonze.
- Comment: a global overview of ABINIT, with focus on selected capabilities .
- Note that a version of this paper, that is not formatted for J. Chem. Phys 
- is available at https://www.abinit.org/sites/default/files/ABINIT20_JPC.pdf .
- The licence allows the authors to put it on the Web.
- DOI and bibtex: see https://docs.abinit.org/theory/bibliography/#romero2020
-
- [4] Recent developments in the ABINIT software package.
- Computer Phys. Comm. 205, 106 (2016).
- X.Gonze, F.Jollet, F.Abreu Araujo, D.Adams, B.Amadon, T.Applencourt,
- C.Audouze, J.-M.Beuken, J.Bieder, A.Bokhanchuk, E.Bousquet, F.Bruneval
- D.Caliste, M.Cote, F.Dahm, F.Da Pieve, M.Delaveau, M.Di Gennaro,
- B.Dorado, C.Espejo, G.Geneste, L.Genovese, A.Gerossier, M.Giantomassi,
- Y.Gillet, D.R.Hamann, L.He, G.Jomard, J.Laflamme Janssen, S.Le Roux,
- A.Levitt, A.Lherbier, F.Liu, I.Lukacevic, A.Martin, C.Martins,
- M.J.T.Oliveira, S.Ponce, Y.Pouillon, T.Rangel, G.-M.Rignanese,
- A.H.Romero, B.Rousseau, O.Rubel, A.A.Shukri, M.Stankovski, M.Torrent,
- M.J.Van Setten, B.Van Troeye, M.J.Verstraete, D.Waroquier, J.Wiktor,
- B.Xu, A.Zhou, J.W.Zwanziger.
- Comment: the fourth generic paper describing the ABINIT project.
- Note that a version of this paper, that is not formatted for Computer Phys. Comm. 
- is available at https://www.abinit.org/sites/default/files/ABINIT16.pdf .
- The licence allows the authors to put it on the Web.
- DOI and bibtex: see https://docs.abinit.org/theory/bibliography/#gonze2016
-
- And optionally:
-
- [5] ABINIT: First-principles approach of materials and nanosystem properties.
- Computer Phys. Comm. 180, 2582-2615 (2009).
- X. Gonze, B. Amadon, P.-M. Anglade, J.-M. Beuken, F. Bottin, P. Boulanger, F. Bruneval,
- D. Caliste, R. Caracas, M. Cote, T. Deutsch, L. Genovese, Ph. Ghosez, M. Giantomassi
- S. Goedecker, D.R. Hamann, P. Hermet, F. Jollet, G. Jomard, S. Leroux, M. Mancini, S. Mazevet,
- M.J.T. Oliveira, G. Onida, Y. Pouillon, T. Rangel, G.-M. Rignanese, D. Sangalli, R. Shaltaf,
- M. Torrent, M.J. Verstraete, G. Zerah, J.W. Zwanziger
- Comment: the third generic paper describing the ABINIT project.
- Note that a version of this paper, that is not formatted for Computer Phys. Comm. 
- is available at https://www.abinit.org/sites/default/files/ABINIT_CPC_v10.pdf .
- The licence allows the authors to put it on the Web.
- DOI and bibtex: see https://docs.abinit.org/theory/bibliography/#gonze2009
-
- Proc.   0 individual time (sec): cpu=       1201.4  wall=       1203.5

================================================================================

 Calculation completed.
.Delivered   0 WARNINGs and   0 COMMENTs to log file.
+Overall time at end (sec) : cpu=     615838.1  wall=     616180.1
