
.Version 9.9.2 of ABINIT 
.(MPI version, prepared for a x86_64_linux_gnu11.2 computer) 

.Copyright (C) 1998-2022 ABINIT group . 
 ABINIT comes with ABSOLUTELY NO WARRANTY.
 It is free software, and you are welcome to redistribute it
 under certain conditions (GNU General Public License,
 see ~abinit/COPYING or http://www.gnu.org/copyleft/gpl.txt).

 ABINIT is a project of the Universite Catholique de Louvain,
 Corning Inc. and other collaborators, see ~abinit/doc/developers/contributors.txt .
 Please read https://docs.abinit.org/theory/acknowledgments for suggested
 acknowledgments of the ABINIT effort.
 For more information, see https://www.abinit.org .

.Starting date : Sat 11 Feb 2023.
- ( at 20h52 )
  
- input  file    -> run.abi
- output file    -> run.abo
- root for input  files -> indata_gs
- root for output files -> outdata_gs


 DATASET    1 : space group Fd -3 m (#227); Bravais cF (face-center cubic)
================================================================================
 Values of the parameters that define the memory need for DATASET  1.
     intxc =       0    ionmov =       0      iscf =       7    lmnmax =       6
     lnmax =       6     mgfft =      30  mpssoang =       3    mqgrid =    3001
     natom =       2  nloc_mem =       1    nspden =       1   nspinor =       1
    nsppol =       1      nsym =      48    n1xccc =    2501    ntypat =       1
    occopt =       1   xclevel =       2
-    mband =           8        mffmem =           1         mkmem =           1
       mpw =         126          nfft =       13500          nkpt =          29
================================================================================
P This job should need less than                       5.805 Mbytes of memory.
  Rough estimation (10% accuracy) of disk space for files :
_ WF disk file :      0.894 Mbytes ; DEN or POT disk file :      0.105 Mbytes.
================================================================================


 DATASET    2 : space group Fd -3 m (#227); Bravais cF (face-center cubic)
================================================================================
 Values of the parameters that define the memory need for DATASET  2.
     intxc =       0    ionmov =       0      iscf =       7    lmnmax =       6
     lnmax =       6     mgfft =      30  mpssoang =       3    mqgrid =    3001
     natom =       2  nloc_mem =       1    nspden =       1   nspinor =       1
    nsppol =       1      nsym =      48    n1xccc =    2501    ntypat =       1
    occopt =       1   xclevel =       2
-    mband =           5        mffmem =           1         mkmem =           1
       mpw =         995          nfft =       27000          nkpt =          29
================================================================================
P This job should need less than                       9.495 Mbytes of memory.
  Rough estimation (10% accuracy) of disk space for files :
_ WF disk file :      2.203 Mbytes ; DEN or POT disk file :      0.208 Mbytes.
================================================================================

--------------------------------------------------------------------------------
------------- Echo of variables that govern the present computation ------------
--------------------------------------------------------------------------------
-
- outvars: echo of selected default values                                      
-   iomode0 =  0 , fftalg0 =312 , wfoptalg0 =  0
-
- outvars: echo of global parameters not present in the input file              
-  max_nthreads =    0
-
 -outvars: echo values of preprocessed input variables --------
-          iomode1          1
-          iomode2          0
            acell      1.0260000000E+01  1.0260000000E+01  1.0260000000E+01 Bohr
              amu      2.80855000E+01
        autoparal1          1
        autoparal2          0
           bandpp1          2
           bandpp2          1
     densfor_pred1          6
     densfor_pred2          2
           diemac      1.20000000E+01
             ecut      1.80000000E+01 Hartree
-          fftalg         312
           getden1          0
           getden2         -1
           istwfk        1    0    0    0    1    0    0    0    0    0
                         0    0    0    0    0    0    0    0    0    0
                         1    0    0    0    0    0    0    0    0
              ixc          11
           jdtset        1    2
              kpt      0.00000000E+00  0.00000000E+00  0.00000000E+00
                       1.25000000E-01  0.00000000E+00  0.00000000E+00
                       2.50000000E-01  0.00000000E+00  0.00000000E+00
                       3.75000000E-01  0.00000000E+00  0.00000000E+00
                       5.00000000E-01  0.00000000E+00  0.00000000E+00
                       1.25000000E-01  1.25000000E-01  0.00000000E+00
                       2.50000000E-01  1.25000000E-01  0.00000000E+00
                       3.75000000E-01  1.25000000E-01  0.00000000E+00
                       5.00000000E-01  1.25000000E-01  0.00000000E+00
                      -3.75000000E-01  1.25000000E-01  0.00000000E+00
                      -2.50000000E-01  1.25000000E-01  0.00000000E+00
                      -1.25000000E-01  1.25000000E-01  0.00000000E+00
                       2.50000000E-01  2.50000000E-01  0.00000000E+00
                       3.75000000E-01  2.50000000E-01  0.00000000E+00
                       5.00000000E-01  2.50000000E-01  0.00000000E+00
                      -3.75000000E-01  2.50000000E-01  0.00000000E+00
                      -2.50000000E-01  2.50000000E-01  0.00000000E+00
                       3.75000000E-01  3.75000000E-01  0.00000000E+00
                       5.00000000E-01  3.75000000E-01  0.00000000E+00
                      -3.75000000E-01  3.75000000E-01  0.00000000E+00
                       5.00000000E-01  5.00000000E-01  0.00000000E+00
                       3.75000000E-01  2.50000000E-01  1.25000000E-01
                       5.00000000E-01  2.50000000E-01  1.25000000E-01
                      -3.75000000E-01  2.50000000E-01  1.25000000E-01
                       5.00000000E-01  3.75000000E-01  1.25000000E-01
                      -3.75000000E-01  3.75000000E-01  1.25000000E-01
                      -2.50000000E-01  3.75000000E-01  1.25000000E-01
                      -3.75000000E-01  5.00000000E-01  1.25000000E-01
                      -2.50000000E-01  5.00000000E-01  2.50000000E-01
         kptrlatt        8    0    0      0    8    0      0    0    8
          kptrlen      5.80393246E+01
P           mkmem           1
            natom           2
            nband1          8
            nband2          5
           ndtset           2
            ngfft          30      30      30
             nkpt          29
-          npband1          4
-          npband2          1
-           npfft1          2
-           npfft2          1
-        np_spkpt1         29
-        np_spkpt2          1
            nstep          50
             nsym          48
           ntypat           1
              occ1     2.000000  2.000000  2.000000  2.000000  0.000000  0.000000
                       0.000000  0.000000
              occ2     2.000000  2.000000  2.000000  2.000000  0.000000
        optdriver1          0
        optdriver2          6
           ortalg1         -2
           ortalg2          2
        paral_kgb1          1
        paral_kgb2          0
            rprim      0.0000000000E+00  5.0000000000E-01  5.0000000000E-01
                       5.0000000000E-01  0.0000000000E+00  5.0000000000E-01
                       5.0000000000E-01  5.0000000000E-01  0.0000000000E+00
          spgroup         227
           symrel      1  0  0   0  1  0   0  0  1      -1  0  0   0 -1  0   0  0 -1
                       0 -1  1   0 -1  0   1 -1  0       0  1 -1   0  1  0  -1  1  0
                      -1  0  0  -1  0  1  -1  1  0       1  0  0   1  0 -1   1 -1  0
                       0  1 -1   1  0 -1   0  0 -1       0 -1  1  -1  0  1   0  0  1
                      -1  0  0  -1  1  0  -1  0  1       1  0  0   1 -1  0   1  0 -1
                       0 -1  1   1 -1  0   0 -1  0       0  1 -1  -1  1  0   0  1  0
                       1  0  0   0  0  1   0  1  0      -1  0  0   0  0 -1   0 -1  0
                       0  1 -1   0  0 -1   1  0 -1       0 -1  1   0  0  1  -1  0  1
                      -1  0  1  -1  1  0  -1  0  0       1  0 -1   1 -1  0   1  0  0
                       0 -1  0   1 -1  0   0 -1  1       0  1  0  -1  1  0   0  1 -1
                       1  0 -1   0  0 -1   0  1 -1      -1  0  1   0  0  1   0 -1  1
                       0  1  0   0  0  1   1  0  0       0 -1  0   0  0 -1  -1  0  0
                       1  0 -1   0  1 -1   0  0 -1      -1  0  1   0 -1  1   0  0  1
                       0 -1  0   0 -1  1   1 -1  0       0  1  0   0  1 -1  -1  1  0
                      -1  0  1  -1  0  0  -1  1  0       1  0 -1   1  0  0   1 -1  0
                       0  1  0   1  0  0   0  0  1       0 -1  0  -1  0  0   0  0 -1
                       0  0 -1   0  1 -1   1  0 -1       0  0  1   0 -1  1  -1  0  1
                       1 -1  0   0 -1  1   0 -1  0      -1  1  0   0  1 -1   0  1  0
                       0  0  1   1  0  0   0  1  0       0  0 -1  -1  0  0   0 -1  0
                      -1  1  0  -1  0  0  -1  0  1       1 -1  0   1  0  0   1  0 -1
                       0  0  1   0  1  0   1  0  0       0  0 -1   0 -1  0  -1  0  0
                       1 -1  0   0 -1  0   0 -1  1      -1  1  0   0  1  0   0  1 -1
                       0  0 -1   1  0 -1   0  1 -1       0  0  1  -1  0  1   0 -1  1
                      -1  1  0  -1  0  1  -1  0  0       1 -1  0   1  0 -1   1  0  0
           timopt          -1
            tnons      0.0000000  0.0000000  0.0000000     0.2500000  0.2500000  0.2500000
                       0.0000000  0.0000000  0.0000000     0.2500000  0.2500000  0.2500000
                       0.0000000  0.0000000  0.0000000     0.2500000  0.2500000  0.2500000
                       0.0000000  0.0000000  0.0000000     0.2500000  0.2500000  0.2500000
                       0.0000000  0.0000000  0.0000000     0.2500000  0.2500000  0.2500000
                       0.0000000  0.0000000  0.0000000     0.2500000  0.2500000  0.2500000
                       0.0000000  0.0000000  0.0000000     0.2500000  0.2500000  0.2500000
                       0.0000000  0.0000000  0.0000000     0.2500000  0.2500000  0.2500000
                       0.0000000  0.0000000  0.0000000     0.2500000  0.2500000  0.2500000
                       0.0000000  0.0000000  0.0000000     0.2500000  0.2500000  0.2500000
                       0.0000000  0.0000000  0.0000000     0.2500000  0.2500000  0.2500000
                       0.0000000  0.0000000  0.0000000     0.2500000  0.2500000  0.2500000
                       0.0000000  0.0000000  0.0000000     0.2500000  0.2500000  0.2500000
                       0.0000000  0.0000000  0.0000000     0.2500000  0.2500000  0.2500000
                       0.0000000  0.0000000  0.0000000     0.2500000  0.2500000  0.2500000
                       0.0000000  0.0000000  0.0000000     0.2500000  0.2500000  0.2500000
                       0.0000000  0.0000000  0.0000000     0.2500000  0.2500000  0.2500000
                       0.0000000  0.0000000  0.0000000     0.2500000  0.2500000  0.2500000
                       0.0000000  0.0000000  0.0000000     0.2500000  0.2500000  0.2500000
                       0.0000000  0.0000000  0.0000000     0.2500000  0.2500000  0.2500000
                       0.0000000  0.0000000  0.0000000     0.2500000  0.2500000  0.2500000
                       0.0000000  0.0000000  0.0000000     0.2500000  0.2500000  0.2500000
                       0.0000000  0.0000000  0.0000000     0.2500000  0.2500000  0.2500000
                       0.0000000  0.0000000  0.0000000     0.2500000  0.2500000  0.2500000
           tolvrs1     1.00000000E-08
           tolvrs2     0.00000000E+00
            typat      1  1
         wfoptalg1        114
         wfoptalg2          0
              wtk        0.00195    0.01563    0.01563    0.01563    0.00781    0.01172
                         0.04688    0.04688    0.04688    0.04688    0.04688    0.02344
                         0.01172    0.04688    0.04688    0.04688    0.02344    0.01172
                         0.04688    0.02344    0.00586    0.04688    0.09375    0.04688
                         0.04688    0.09375    0.04688    0.02344    0.01172
           xangst      0.0000000000E+00  0.0000000000E+00  0.0000000000E+00
                       1.3573395400E+00  1.3573395400E+00  1.3573395400E+00
            xcart      0.0000000000E+00  0.0000000000E+00  0.0000000000E+00
                       2.5650000000E+00  2.5650000000E+00  2.5650000000E+00
             xred      0.0000000000E+00  0.0000000000E+00  0.0000000000E+00
                       2.5000000000E-01  2.5000000000E-01  2.5000000000E-01
            znucl       14.00000

================================================================================

 chkinp: Checking input parameters for consistency, jdtset=   1.

 chkinp: Checking input parameters for consistency, jdtset=   2.

================================================================================
== DATASET  1 ==================================================================
-   mpi_nproc: 232, omp_nthreads: -1 (-1 if OMP is not activated)


--- !DatasetInfo
iteration_state: {dtset: 1, }
dimensions: {natom: 2, nkpt: 29, mband: 8, nsppol: 1, nspinor: 1, nspden: 1, mpw: 126, }
cutoff_energies: {ecut:  18.0, pawecutdg:  -1.0, }
electrons: {nelect:   8.00000000E+00, charge:   0.00000000E+00, occopt:   1.00000000E+00, tsmear:   1.00000000E-02, }
meta: {optdriver: 0, ionmov: 0, optcell: 0, iscf: 7, paral_kgb: 1, }
...

 Exchange-correlation functional for the present dataset will be:
  GGA: Perdew-Burke-Ernzerhof functional - ixc=11
 Citation for XC functional:
  J.P.Perdew, K.Burke, M.Ernzerhof, PRL 77, 3865 (1996)

 Real(R)+Recip(G) space primitive vectors, cartesian coordinates (Bohr,Bohr^-1):
 R(1)=  0.0000000  5.1300000  5.1300000  G(1)= -0.0974659  0.0974659  0.0974659
 R(2)=  5.1300000  0.0000000  5.1300000  G(2)=  0.0974659 -0.0974659  0.0974659
 R(3)=  5.1300000  5.1300000  0.0000000  G(3)=  0.0974659  0.0974659 -0.0974659
 Unit cell volume ucvol=  2.7001139E+02 bohr^3
 Angles (23,13,12)=  6.00000000E+01  6.00000000E+01  6.00000000E+01 degrees

 getcut: wavevector=  0.0000  0.0000  0.0000  ngfft=  30  30  30
         ecut(hartree)=     18.000   => boxcut(ratio)=   2.16755

--- Pseudopotential description ------------------------------------------------
- pspini: atom type   1  psp file is Si.psp8
- pspatm: opening atomic psp file    Si.psp8
- Si    ONCVPSP-3.2.3.1  r_core=   1.60303   1.72197   1.91712
- 14.00000   4.00000    170510                znucl, zion, pspdat
    8   11    2    4       600   0.00000      pspcod,pspxc,lmax,lloc,mmax,r2well
    5.99000000000000    4.00000000000000    0.00000000000000   rchrg,fchrg,qchrg
     nproj     2     2     2
     extension_switch     1
  pspatm : epsatm=    9.34321699
         --- l  ekb(1:nproj) -->
             0    5.168965    0.829883
             1    2.571282    0.578307
             2   -2.427311   -0.488097
 pspatm: atomic psp has been read  and splines computed

   1.49491472E+02                                ecore*ucvol(ha*bohr**3)
--------------------------------------------------------------------------------

_setup2: Arith. and geom. avg. npw (full set) are     124.229     124.222

================================================================================

--- !BeginCycle
iteration_state: {dtset: 1, }
solver: {iscf: 7, nstep: 50, nline: 4, wfoptalg: 114, }
tolerances: {tolvrs: 1.00E-08, }
...

     iter   Etot(hartree)      deltaE(h)  residm     vres2
 ETOT  1  -8.4603479814177    -8.460E+00 2.008E-04 6.577E+00
 ETOT  2  -8.4622240904702    -1.876E-03 1.992E-05 1.045E-01
 ETOT  3  -8.4622474560716    -2.337E-05 1.412E-05 1.694E-03
 ETOT  4  -8.4622476582966    -2.022E-07 2.097E-06 6.731E-05
 ETOT  5  -8.4622476647408    -6.444E-09 4.943E-07 6.791E-07
 ETOT  6  -8.4622476647810    -4.020E-11 2.306E-07 4.730E-09

 At SCF step    6       vres2   =  4.73E-09 < tolvrs=  1.00E-08 =>converged.

 Cartesian components of stress tensor (hartree/bohr^3)
  sigma(1 1)= -6.82137457E-05  sigma(3 2)=  0.00000000E+00
  sigma(2 2)= -6.82137457E-05  sigma(3 1)=  0.00000000E+00
  sigma(3 3)= -6.82137457E-05  sigma(2 1)=  0.00000000E+00


--- !ResultsGS
iteration_state: {dtset: 1, }
comment   : Summary of ground state results
lattice_vectors:
- [  0.0000000,   5.1300000,   5.1300000, ]
- [  5.1300000,   0.0000000,   5.1300000, ]
- [  5.1300000,   5.1300000,   0.0000000, ]
lattice_lengths: [   7.25492,    7.25492,    7.25492, ]
lattice_angles: [ 60.000,  60.000,  60.000, ] # degrees, (23, 13, 12)
lattice_volume:   2.7001139E+02
convergence: {deltae: -4.020E-11, res2:  4.730E-09, residm:  2.306E-07, diffor: null, }
etotal    :  -8.46224766E+00
entropy   :   0.00000000E+00
fermie    :   1.60066786E-01
cartesian_stress_tensor: # hartree/bohr^3
- [ -6.82137457E-05,   0.00000000E+00,   0.00000000E+00, ]
- [  0.00000000E+00,  -6.82137457E-05,   0.00000000E+00, ]
- [  0.00000000E+00,   0.00000000E+00,  -6.82137457E-05, ]
pressure_GPa:   2.0069E+00
xred      :
- [  0.0000E+00,   0.0000E+00,   0.0000E+00, Si]
- [  2.5000E-01,   2.5000E-01,   2.5000E-01, Si]
cartesian_forces: # hartree/bohr
- [ -1.28145046E-32,   3.97249644E-31,  -6.02281718E-31, ]
- [  1.28145046E-32,  -3.97249644E-31,   6.02281718E-31, ]
force_length_stats: {min:   7.21605681E-31, max:   7.21605681E-31, mean:   7.21605681E-31, }
...

 Integrated electronic density in atomic spheres:
 ------------------------------------------------
 Atom  Sphere_radius  Integrated_density
    1        2.00000          1.78616649
    2        2.00000          1.75393465
================================================================================

 ----iterations are completed or convergence reached----

 Mean square residual over all n,k,spin=   18.341E-10; max=  23.057E-08
 reduced coordinates (array xred) for    2 atoms
       0.000000000000      0.000000000000      0.000000000000
       0.250000000000      0.250000000000      0.250000000000
 rms dE/dt=  2.2338E-30; max dE/dt=  3.1554E-30; dE/dt below (all hartree)
    1       0.000000000000      0.000000000000     -0.000000000000
    2      -0.000000000000     -0.000000000000      0.000000000000

 cartesian coordinates (angstrom) at end:
    1      0.00000000000000     0.00000000000000     0.00000000000000
    2      1.35733954003335     1.35733954003335     1.35733954003335

 cartesian forces (hartree/bohr) at end:
    1     -0.00000000000000     0.00000000000000    -0.00000000000000
    2      0.00000000000000    -0.00000000000000     0.00000000000000
 frms,max,avg= 4.1661923E-31 6.0228172E-31   0.000E+00  0.000E+00  0.000E+00 h/b

 cartesian forces (eV/Angstrom) at end:
    1     -0.00000000000000     0.00000000000000    -0.00000000000000
    2      0.00000000000000    -0.00000000000000     0.00000000000000
 frms,max,avg= 2.1423421E-29 3.0970569E-29   0.000E+00  0.000E+00  0.000E+00 e/A
 length scales= 10.260000000000 10.260000000000 10.260000000000 bohr
              =  5.429358160133  5.429358160133  5.429358160133 angstroms
 prteigrs : about to open file outdata_gs_DS1_EIG
 Fermi (or HOMO) energy (hartree) =   0.16007   Average Vxc (hartree)=  -0.34148
 Eigenvalues (hartree) for nkpt=  29  k points:
 kpt#   1, nband=  8, wtk=  0.00195, kpt=  0.0000  0.0000  0.0000 (reduced coord)
  -0.27980    0.16007    0.16007    0.16007    0.25399    0.25399    0.25399    0.28315
 prteigrs : prtvol=0 or 1, do not print more k-points.


--- !EnergyTerms
iteration_state     : {dtset: 1, }
comment             : Components of total free energy in Hartree
kinetic             :  3.07018725517544E+00
hartree             :  5.47756014239906E-01
xc                  : -3.09247353075634E+00
Ewald energy        : -8.40046478618609E+00
psp_core            :  5.53648753925927E-01
local_psp           : -2.29488524857957E+00
non_local_psp       :  1.15398387739973E+00
total_energy        : -8.46224766478099E+00
total_energy_eV     : -2.30269469524744E+02
band_energy         : -2.09883545906459E-01
...


 Cartesian components of stress tensor (hartree/bohr^3)
  sigma(1 1)= -6.82137457E-05  sigma(3 2)=  0.00000000E+00
  sigma(2 2)= -6.82137457E-05  sigma(3 1)=  0.00000000E+00
  sigma(3 3)= -6.82137457E-05  sigma(2 1)=  0.00000000E+00

-Cartesian components of stress tensor (GPa)         [Pressure=  2.0069E+00 GPa]
- sigma(1 1)= -2.00691735E+00  sigma(3 2)=  0.00000000E+00
- sigma(2 2)= -2.00691735E+00  sigma(3 1)=  0.00000000E+00
- sigma(3 3)= -2.00691735E+00  sigma(2 1)=  0.00000000E+00

================================================================================
== DATASET  2 ==================================================================
-   mpi_nproc: 256, omp_nthreads: -1 (-1 if OMP is not activated)


--- !DatasetInfo
iteration_state: {dtset: 2, }
dimensions: {natom: 2, nkpt: 29, mband: 5, nsppol: 1, nspinor: 1, nspden: 1, mpw: 995, }
cutoff_energies: {ecut:  18.0, pawecutdg:  -1.0, }
electrons: {nelect:   8.00000000E+00, charge:   0.00000000E+00, occopt:   1.00000000E+00, tsmear:   1.00000000E-02, }
meta: {optdriver: 6, }
...

 mkfilename : getden/=0, take file _DEN from output of DATASET   1.

 Exchange-correlation functional for the present dataset will be:
  GGA: Perdew-Burke-Ernzerhof functional - ixc=11
 Citation for XC functional:
  J.P.Perdew, K.Burke, M.Ernzerhof, PRL 77, 3865 (1996)

.Using single precision arithmetic; gwpc =  4

- Reading GS density from: outdata_gs_DS1_DEN



--------------------------------------------------------------------------------

 Total charge density [el/Bohr^3]
)     Maximum=    8.5588E-02  at reduced coord.    0.1000    0.1000    0.7000
)     Minimum=    1.5408E-03  at reduced coord.    0.0000    0.0000    0.0000
   Integrated=    8.0000E+00

 === KS gaps after direct diagonalization ===
 Indirect band gap semiconductor
 Fundamental gap:     0.612 (eV)
   VBM:     4.356 (eV) at k: [ 0.0000E+00,  0.0000E+00,  0.0000E+00]
   CBM:     4.967 (eV) at k: [ 3.7500E-01,  3.7500E-01,  0.0000E+00]
 Direct gap:         2.556 (eV) at k: [ 0.0000E+00,  0.0000E+00,  0.0000E+00]


== END DATASET(S) ==============================================================
================================================================================
  
 -outvars: echo values of variables after computation  --------
-          iomode1          1
-          iomode2          0
            acell      1.0260000000E+01  1.0260000000E+01  1.0260000000E+01 Bohr
              amu      2.80855000E+01
        autoparal1          1
        autoparal2          0
           bandpp1          2
           bandpp2          1
     densfor_pred1          6
     densfor_pred2          2
           diemac      1.20000000E+01
             ecut      1.80000000E+01 Hartree
           etotal1    -8.4622476648E+00
           etotal2     0.0000000000E+00
            fcart1    -1.2814504633E-32  3.9724964363E-31 -6.0228171776E-31
                       1.2814504633E-32 -3.9724964363E-31  6.0228171776E-31
            fcart2     0.0000000000E+00  0.0000000000E+00  0.0000000000E+00
                       0.0000000000E+00  0.0000000000E+00  0.0000000000E+00
-          fftalg         312
           getden1          0
           getden2         -1
           istwfk        1    0    0    0    1    0    0    0    0    0
                         0    0    0    0    0    0    0    0    0    0
                         1    0    0    0    0    0    0    0    0
              ixc          11
           jdtset        1    2
              kpt      0.00000000E+00  0.00000000E+00  0.00000000E+00
                       1.25000000E-01  0.00000000E+00  0.00000000E+00
                       2.50000000E-01  0.00000000E+00  0.00000000E+00
                       3.75000000E-01  0.00000000E+00  0.00000000E+00
                       5.00000000E-01  0.00000000E+00  0.00000000E+00
                       1.25000000E-01  1.25000000E-01  0.00000000E+00
                       2.50000000E-01  1.25000000E-01  0.00000000E+00
                       3.75000000E-01  1.25000000E-01  0.00000000E+00
                       5.00000000E-01  1.25000000E-01  0.00000000E+00
                      -3.75000000E-01  1.25000000E-01  0.00000000E+00
                      -2.50000000E-01  1.25000000E-01  0.00000000E+00
                      -1.25000000E-01  1.25000000E-01  0.00000000E+00
                       2.50000000E-01  2.50000000E-01  0.00000000E+00
                       3.75000000E-01  2.50000000E-01  0.00000000E+00
                       5.00000000E-01  2.50000000E-01  0.00000000E+00
                      -3.75000000E-01  2.50000000E-01  0.00000000E+00
                      -2.50000000E-01  2.50000000E-01  0.00000000E+00
                       3.75000000E-01  3.75000000E-01  0.00000000E+00
                       5.00000000E-01  3.75000000E-01  0.00000000E+00
                      -3.75000000E-01  3.75000000E-01  0.00000000E+00
                       5.00000000E-01  5.00000000E-01  0.00000000E+00
                       3.75000000E-01  2.50000000E-01  1.25000000E-01
                       5.00000000E-01  2.50000000E-01  1.25000000E-01
                      -3.75000000E-01  2.50000000E-01  1.25000000E-01
                       5.00000000E-01  3.75000000E-01  1.25000000E-01
                      -3.75000000E-01  3.75000000E-01  1.25000000E-01
                      -2.50000000E-01  3.75000000E-01  1.25000000E-01
                      -3.75000000E-01  5.00000000E-01  1.25000000E-01
                      -2.50000000E-01  5.00000000E-01  2.50000000E-01
         kptrlatt        8    0    0      0    8    0      0    0    8
          kptrlen      5.80393246E+01
P           mkmem           1
            natom           2
            nband1          8
            nband2          5
           ndtset           2
            ngfft          30      30      30
             nkpt          29
-          npband1          4
-          npband2          1
-           npfft1          2
-           npfft2          1
-        np_spkpt1         29
-        np_spkpt2          1
            nstep          50
             nsym          48
           ntypat           1
              occ1     2.000000  2.000000  2.000000  2.000000  0.000000  0.000000
                       0.000000  0.000000
              occ2     2.000000  2.000000  2.000000  2.000000  0.000000
        optdriver1          0
        optdriver2          6
           ortalg1         -2
           ortalg2          2
        paral_kgb1          1
        paral_kgb2          0
            rprim      0.0000000000E+00  5.0000000000E-01  5.0000000000E-01
                       5.0000000000E-01  0.0000000000E+00  5.0000000000E-01
                       5.0000000000E-01  5.0000000000E-01  0.0000000000E+00
          spgroup         227
           strten1    -6.8213745657E-05 -6.8213745657E-05 -6.8213745657E-05
                       0.0000000000E+00  0.0000000000E+00  0.0000000000E+00
           strten2     0.0000000000E+00  0.0000000000E+00  0.0000000000E+00
                       0.0000000000E+00  0.0000000000E+00  0.0000000000E+00
           symrel      1  0  0   0  1  0   0  0  1      -1  0  0   0 -1  0   0  0 -1
                       0 -1  1   0 -1  0   1 -1  0       0  1 -1   0  1  0  -1  1  0
                      -1  0  0  -1  0  1  -1  1  0       1  0  0   1  0 -1   1 -1  0
                       0  1 -1   1  0 -1   0  0 -1       0 -1  1  -1  0  1   0  0  1
                      -1  0  0  -1  1  0  -1  0  1       1  0  0   1 -1  0   1  0 -1
                       0 -1  1   1 -1  0   0 -1  0       0  1 -1  -1  1  0   0  1  0
                       1  0  0   0  0  1   0  1  0      -1  0  0   0  0 -1   0 -1  0
                       0  1 -1   0  0 -1   1  0 -1       0 -1  1   0  0  1  -1  0  1
                      -1  0  1  -1  1  0  -1  0  0       1  0 -1   1 -1  0   1  0  0
                       0 -1  0   1 -1  0   0 -1  1       0  1  0  -1  1  0   0  1 -1
                       1  0 -1   0  0 -1   0  1 -1      -1  0  1   0  0  1   0 -1  1
                       0  1  0   0  0  1   1  0  0       0 -1  0   0  0 -1  -1  0  0
                       1  0 -1   0  1 -1   0  0 -1      -1  0  1   0 -1  1   0  0  1
                       0 -1  0   0 -1  1   1 -1  0       0  1  0   0  1 -1  -1  1  0
                      -1  0  1  -1  0  0  -1  1  0       1  0 -1   1  0  0   1 -1  0
                       0  1  0   1  0  0   0  0  1       0 -1  0  -1  0  0   0  0 -1
                       0  0 -1   0  1 -1   1  0 -1       0  0  1   0 -1  1  -1  0  1
                       1 -1  0   0 -1  1   0 -1  0      -1  1  0   0  1 -1   0  1  0
                       0  0  1   1  0  0   0  1  0       0  0 -1  -1  0  0   0 -1  0
                      -1  1  0  -1  0  0  -1  0  1       1 -1  0   1  0  0   1  0 -1
                       0  0  1   0  1  0   1  0  0       0  0 -1   0 -1  0  -1  0  0
                       1 -1  0   0 -1  0   0 -1  1      -1  1  0   0  1  0   0  1 -1
                       0  0 -1   1  0 -1   0  1 -1       0  0  1  -1  0  1   0 -1  1
                      -1  1  0  -1  0  1  -1  0  0       1 -1  0   1  0 -1   1  0  0
           timopt          -1
            tnons      0.0000000  0.0000000  0.0000000     0.2500000  0.2500000  0.2500000
                       0.0000000  0.0000000  0.0000000     0.2500000  0.2500000  0.2500000
                       0.0000000  0.0000000  0.0000000     0.2500000  0.2500000  0.2500000
                       0.0000000  0.0000000  0.0000000     0.2500000  0.2500000  0.2500000
                       0.0000000  0.0000000  0.0000000     0.2500000  0.2500000  0.2500000
                       0.0000000  0.0000000  0.0000000     0.2500000  0.2500000  0.2500000
                       0.0000000  0.0000000  0.0000000     0.2500000  0.2500000  0.2500000
                       0.0000000  0.0000000  0.0000000     0.2500000  0.2500000  0.2500000
                       0.0000000  0.0000000  0.0000000     0.2500000  0.2500000  0.2500000
                       0.0000000  0.0000000  0.0000000     0.2500000  0.2500000  0.2500000
                       0.0000000  0.0000000  0.0000000     0.2500000  0.2500000  0.2500000
                       0.0000000  0.0000000  0.0000000     0.2500000  0.2500000  0.2500000
                       0.0000000  0.0000000  0.0000000     0.2500000  0.2500000  0.2500000
                       0.0000000  0.0000000  0.0000000     0.2500000  0.2500000  0.2500000
                       0.0000000  0.0000000  0.0000000     0.2500000  0.2500000  0.2500000
                       0.0000000  0.0000000  0.0000000     0.2500000  0.2500000  0.2500000
                       0.0000000  0.0000000  0.0000000     0.2500000  0.2500000  0.2500000
                       0.0000000  0.0000000  0.0000000     0.2500000  0.2500000  0.2500000
                       0.0000000  0.0000000  0.0000000     0.2500000  0.2500000  0.2500000
                       0.0000000  0.0000000  0.0000000     0.2500000  0.2500000  0.2500000
                       0.0000000  0.0000000  0.0000000     0.2500000  0.2500000  0.2500000
                       0.0000000  0.0000000  0.0000000     0.2500000  0.2500000  0.2500000
                       0.0000000  0.0000000  0.0000000     0.2500000  0.2500000  0.2500000
                       0.0000000  0.0000000  0.0000000     0.2500000  0.2500000  0.2500000
           tolvrs1     1.00000000E-08
           tolvrs2     0.00000000E+00
            typat      1  1
         wfoptalg1        114
         wfoptalg2          0
              wtk        0.00195    0.01563    0.01563    0.01563    0.00781    0.01172
                         0.04688    0.04688    0.04688    0.04688    0.04688    0.02344
                         0.01172    0.04688    0.04688    0.04688    0.02344    0.01172
                         0.04688    0.02344    0.00586    0.04688    0.09375    0.04688
                         0.04688    0.09375    0.04688    0.02344    0.01172
           xangst      0.0000000000E+00  0.0000000000E+00  0.0000000000E+00
                       1.3573395400E+00  1.3573395400E+00  1.3573395400E+00
            xcart      0.0000000000E+00  0.0000000000E+00  0.0000000000E+00
                       2.5650000000E+00  2.5650000000E+00  2.5650000000E+00
             xred      0.0000000000E+00  0.0000000000E+00  0.0000000000E+00
                       2.5000000000E-01  2.5000000000E-01  2.5000000000E-01
            znucl       14.00000

================================================================================

 Test the timer : 
  a combined call timab(*,1,tsec) + timab(*,2,tsec) is 
- CPU time =    6.1093E-07 sec,    Wall time =    6.1096E-07 sec

- Total cpu        time (s,m,h):        746.6       12.44      0.207
- Total wall clock time (s,m,h):        852.2       14.20      0.237
-
- For major independent code sections, cpu and wall times (sec),
-  as well as % of the time and number of calls for node 0
-
-<BEGIN_TIMER mpi_nprocs = 232, omp_nthreads = 1, mpi_rank = 0>
- cpu_time =            3.1, wall_time =            3.7
-
- routine                            cpu     %          wall     %      number of calls Gflops    Speedup Efficacity
-                                                                        (-1=no count)
- ugb_from_diago                    0.372   0.0         0.438   0.1              1      -1.00        0.85       0.85
- pspini                            0.246   0.0         0.248   0.0              2      -1.00        1.00       1.00
- abinit(2)                         0.159   0.0         0.166   0.0              1      -1.00        0.96       0.96
- timing timab                      0.119   0.0         0.119   0.0             14      -1.00        1.00       1.00
- fourwf%(pot)                      0.077   0.0         0.077   0.0             67      -1.00        1.00       1.00
- newkpt(excl. rwwf   )             0.070   0.0         0.070   0.0             -1      -1.00        1.00       1.00
- fourdp                            0.052   0.0         0.052   0.0             99      -1.00        1.00       1.00
- invars2                           0.045   0.0         0.045   0.0              2      -1.00        1.00       1.00
- vtorho(MPI)                       0.023   0.0         0.023   0.0              6      -1.00        0.99       0.99
- xc:pot/=fourdp                    0.022   0.0         0.022   0.0              8      -1.00        1.00       1.00
- ewald                             0.020   0.0         0.020   0.0              2      -1.00        1.00       1.00
- nonlop(apply)                     0.020   0.0         0.020   0.0             67      -1.00        1.00       1.00
- stress                            0.010   0.0         0.010   0.0              1      -1.00        1.00       1.00
- ewald2 (+vdw_dftd)                0.007   0.0         0.007   0.0              1      -1.00        1.00       1.00
- prep_bandfft_tabs                 0.007   0.0         0.007   0.0              2      -1.00        0.99       0.99
- mkcore                            0.006   0.0         0.006   0.0              4      -1.00        1.00       1.00
- forces                            0.005   0.0         0.005   0.0              1      -1.00        0.96       0.96
- vtowfk(contrib)                   0.004   0.0         0.004   0.0              6      -1.00        1.00       1.00
- symrhg(no FFT)                    0.003   0.0         0.003   0.0              6      -1.00        1.00       1.00
- getghc-other                      0.002   0.0         0.002   0.0             -1      -1.00        0.99       0.99
- kpgsph                            0.002   0.0         0.002   0.0            119      -1.00        1.00       1.00
- setsym                            0.002   0.0         0.002   0.0              1      -1.00        1.00       1.00
- scfcv-scprqt                      0.001   0.0         0.001   0.0              6      -1.00        1.00       1.00
- others (132)                      0.001   0.0         0.002   0.0             -1      -1.00        0.95       0.95
-<END_TIMER>
-
- subtotal                          1.275   0.2         1.350   0.2                                  0.94       0.94

- For major independent code sections, cpu and wall times (sec),
- as well as % of the total time and number of calls 

-<BEGIN_TIMER mpi_nprocs = 232, omp_nthreads = 1, mpi_rank = world>
- cpu_time =         746.6, wall_time =         852.2
-
- routine                            cpu     %          wall     %      number of calls Gflops    Speedup Efficacity
-                                                                        (-1=no count)
- ugb_from_diago                   98.140  13.1       115.378  13.5            232      -1.00        0.85       0.85
- pspini                           56.598   7.6        56.969   6.7            464      -1.00        0.99       0.99
- timing timab                     27.028   3.6        27.031   3.2           3248      -1.00        1.00       1.00
- fourwf%(pot)                     18.355   2.5        18.374   2.2          15861      -1.00        1.00       1.00
- newkpt(excl. rwwf   )            15.738   2.1        15.743   1.8           -232      -1.00        1.00       1.00
- abinit(2)                        15.375   2.1        15.745   1.8            232      -1.00        0.98       0.98
- fourdp                           10.948   1.5        10.979   1.3          22968      -1.00        1.00       1.00
- invars2                          10.519   1.4        10.520   1.2            464      -1.00        1.00       1.00
- xc:pot/=fourdp                    5.305   0.7         5.335   0.6           1856      -1.00        0.99       0.99
- vtorho(MPI)                       4.809   0.6         4.848   0.6           1392      -1.00        0.99       0.99
- ewald                             4.573   0.6         4.577   0.5            464      -1.00        1.00       1.00
- nonlop(apply)                     4.262   0.6         4.285   0.5          15861      -1.00        0.99       0.99
- stress                            2.345   0.3         2.360   0.3            232      -1.00        0.99       0.99
- ewald2 (+vdw_dftd)                1.663   0.2         1.664   0.2            232      -1.00        1.00       1.00
- mkcore                            1.525   0.2         1.527   0.2            928      -1.00        1.00       1.00
- prep_bandfft_tabs                 1.475   0.2         1.498   0.2            464      -1.00        0.98       0.98
- kpgsph                            0.948   0.1         0.949   0.1          27608      -1.00        1.00       1.00
- forces                            0.875   0.1         0.887   0.1            232      -1.00        0.99       0.99
- symrhg(no FFT)                    0.713   0.1         0.714   0.1           1392      -1.00        1.00       1.00
- scfcv-scprqt                      0.584   0.1         0.587   0.1           1392      -1.00        1.00       1.00
- vtowfk(contrib)                   0.477   0.1         0.479   0.1           1392      -1.00        1.00       1.00
- setsym                            0.471   0.1         0.471   0.1            232      -1.00        1.00       1.00
- getghc-other                      0.469   0.1         0.476   0.1           -232      -1.00        0.99       0.99
- vtowfk  (1)                       0.179   0.0         0.190   0.0           1392      -1.00        0.95       0.95
- nonlop(forces)                    0.149   0.0         0.150   0.0           1856      -1.00        1.00       1.00
- vtowfk(ssdiag)                    0.089   0.0         0.094   0.0           -232      -1.00        0.95       0.95
- mkffnl                            0.060   0.0         0.061   0.0            696      -1.00        0.99       0.99
- inwffil(excl. calls)              0.046   0.0         0.048   0.0            232      -1.00        0.96       0.96
- others (127)                      0.000   0.0         0.000   0.0             -1      -1.00        0.00       0.00
-<END_TIMER>

- subtotal                        283.717  38.0       301.937  35.4                                  0.94       0.94

 Partitioning of abinit
- abinit                          746.648 100.0       852.247 100.0            232                   0.88       0.88
 
- abinit(1)                        46.172   6.2        53.097   6.2            232                   0.87       0.87
- abinit(2)                        15.375   2.1        15.745   1.8            232                   0.98       0.98
- indefo+macroin+invars2m          10.565   1.4        10.567   1.2            232                   1.00       1.00
- abinit(4)                        64.772   8.7        70.237   8.2            232                   0.92       0.92
- abinit(5)                        35.703   4.8        35.767   4.2            232                   1.00       1.00
- driver                          600.624  80.4       694.737  81.5            232                   0.86       0.86
- timana(1)                         0.205   0.0         0.209   0.0            232                   0.98       0.98
- timing timab                     27.028   3.6        27.031   3.2           3248                   1.00       1.00

- subtotal                        746.648 100.0       852.247 100.0                                  0.88       0.88

 Partitioning of driver
- driver                          600.624  80.4       694.737  81.5            232                   0.86       0.86
 
- driver(bef. loop dtset)           0.164   0.0         0.175   0.0            232                   0.94       0.94
- driver(bef. select case)         14.775   2.0        36.255   4.3            464                   0.41       0.41
- (other)                         585.500  78.4       658.116  77.2             -1                   0.89       0.89

- subtotal                        600.624  80.4       694.737  81.5                                  0.86       0.86

 Partitioning of gstateimg+gstate
- gstateimg                       286.597  38.4       337.496  39.6            232                   0.85       0.85
 
- gstate(1)                        21.199   2.8        21.348   2.5            464                   0.99       0.99
- gstate(pspini)                   56.622   7.6        56.994   6.7            232                   0.99       0.99
- gstate(init rhor rhog)            1.086   0.1         1.099   0.1            232                   0.99       0.99
- gstate(init history)              0.411   0.1         0.412   0.0            232                   1.00       1.00
- gstate(...scfcv)                 80.565  10.8       119.453  14.0            232                   0.67       0.67
- gstate(prtwf)                   125.204  16.8       136.565  16.0            232                   0.92       0.92
- gstate(clnup1)                    0.720   0.1         0.809   0.1            232                   0.89       0.89

- subtotal                        286.480  38.4       337.376  39.6                                  0.85       0.85

 Partitioning of scfcv_core
- scfcv_core                       79.634  10.7       118.414  13.9            232                   0.67       0.67
 
- scfcv_core(1)                     0.916   0.1         0.959   0.1            232                   0.96       0.96
- scfcv_core(iniloop, setv          5.376   0.7         5.403   0.6           1392                   0.99       0.99
- scfcv_core(vtorho(f))            44.654   6.0        68.165   8.0           1392                   0.66       0.66
- scfcv-scprqt                      0.584   0.1         0.587   0.1           1392                   1.00       1.00
- scfcv_core(rhotov)                8.656   1.2         8.659   1.0           1392                   1.00       1.00
- scfcv_core(qui loop)              0.632   0.1         0.632   0.1           1392                   1.00       1.00
- scfcv_core(mix pot)              12.326   1.7        27.266   3.2           1160                   0.45       0.45
- scfcv_core(just after sc          0.299   0.0         0.331   0.0            232                   0.90       0.90
- scfcv_core(afterscfloop)          5.176   0.7         5.294   0.6            232                   0.98       0.98
- scfcv_core(outscfcv)              0.850   0.1         0.947   0.1            232                   0.90       0.90

- subtotal                         79.634  10.7       118.414  13.9                                  0.67       0.67

 Partitioning of rhotov
- rhotov                            8.623   1.2         8.625   1.0           1392                   1.00       1.00
 
- rhotov(rhotoxc)                   7.536   1.0         7.538   0.9           1392                   1.00       1.00
- rhotov(other)                     0.182   0.0         0.183   0.0           1392                   0.99       0.99
- (other)                           0.877   0.1         0.876   0.1             -1                   1.00       1.00

- subtotal                          8.623   1.2         8.625   1.0                                  1.00       1.00

 Partitioning of vtorho
- vtorho                           44.619   6.0        68.130   8.0           1392                   0.65       0.65
 
- vtorho(bef. vtowfk)               1.341   0.2         1.366   0.2           1392                   0.98       0.98
- vtowfk                           34.310   4.6        57.650   6.8           1392                   0.60       0.60
- vtorho(aft. kpt loop)             0.817   0.1         0.820   0.1           1392                   1.00       1.00
- vtorho(MPI)                       4.809   0.6         4.848   0.6           1392                   0.99       0.99
- vtorho(highest occ. eig)          0.433   0.1         0.438   0.1           1392                   0.99       0.99
- vtorho(mkrho 2)                   2.501   0.3         2.594   0.3           2784                   0.96       0.96

- subtotal                         44.619   6.0        68.130   8.0                                  0.65       0.65

 Partitioning of vtowfk
- vtowfk                           34.310   4.6        57.650   6.8           1392                   0.60       0.60
 
- vtowfk  (1)                       0.179   0.0         0.190   0.0           1392                   0.95       0.95
- vtowfk(2)                        33.653   4.5        56.981   6.7           -232                   0.59       0.59
- prep_fourwf%vtow                  0.413   0.1         0.413   0.0           1392                   1.00       1.00

- subtotal                         34.310   4.6        57.650   6.8                                  0.60       0.60

 Partitioning of getghc
- getghc                           23.087   3.1        23.134   2.7          15861                   1.00       1.00
 
- fourwf%getghc                    18.355   2.5        18.374   2.2          15861                   1.00       1.00
- nonlop%getghc                     4.262   0.6         4.285   0.5          15861                   0.99       0.99
- getghc-other                      0.469   0.1         0.476   0.1           -232                   0.99       0.99

- subtotal                         23.087   3.1        23.134   2.7                                  1.00       1.00

 Partitioning of fourwf (upwards partitioning)
- fourwf                           18.725   2.5        18.744   2.2          17253                   1.00       1.00
 
- fourwf%getghc                    18.355   2.5        18.374   2.2          15861                   1.00       1.00
- fourwf%prep_four                  0.370   0.0         0.370   0.0           1392                   1.00       1.00

- subtotal                         18.725   2.5        18.744   2.2                                  1.00       1.00

 Partitioning of prep_getghc
- prep_getghc                      11.520   1.5        11.577   1.4           9280                   1.00       1.00
 
- prep_getghc(before if)            0.215   0.0         0.220   0.0           9280                   0.98       0.98
- prep_getghc(alltoall)             1.580   0.2         1.583   0.2          18560                   1.00       1.00
- prep_getghc(getghc - 2 )          9.577   1.3         9.626   1.1           9280                   0.99       0.99

- subtotal                         11.520   1.5        11.577   1.4                                  1.00       1.00

 Partitioning of prep_fourwf
- prep_fourwf                       0.413   0.1         0.413   0.0           1392                   1.00       1.00
 
- fourwf%prep_four                  0.370   0.0         0.370   0.0           1392                   1.00       1.00

- subtotal                          0.391   0.1         0.392   0.0                                  1.00       1.00

 Partitioning of prep_nonlop
- prep_nonlop                       0.715   0.1         0.732   0.1           2088                   0.98       0.98
 
- nonlop%prep_nonl%forstrn          0.407   0.1         0.422   0.0            232                   0.96       0.96
- (other)                           0.259   0.0         0.261   0.0             -1                   0.99       0.99

- subtotal                          0.715   0.1         0.732   0.1                                  0.98       0.98

 Partitioning of inwffil
- inwffil                          15.826   2.1        15.833   1.9            232                   1.00       1.00
 
- inwffil(call newkpt)             15.780   2.1        15.786   1.9            232                   1.00       1.00

- subtotal                         15.825   2.1        15.833   1.9                                  1.00       1.00

 Partitioning of newkpt
- newkpt                           15.780   2.1        15.785   1.9            232                   1.00       1.00
 
- newkpt(call wfconv)               0.186   0.0         0.189   0.0            232                   0.98       0.98
- newkpt(after loop   )            15.551   2.1        15.553   1.8            232                   1.00       1.00

- subtotal                         15.738   2.1        15.743   1.8                                  1.00       1.00

 Partitioning of newvtr
- newvtr                           12.120   1.6        27.040   3.2           1160                   0.45       0.45
 
- newvtr(bef. prcref_PMA)           0.265   0.0         0.300   0.0           1160                   0.89       0.89
- newvtr(call prcref_PMA)           1.118   0.1         1.122   0.1           1160                   1.00       1.00
- newvtr(aft. prcref_PMA)          10.178   1.4        25.063   2.9           1160                   0.41       0.41
- newvtr(mean potential)            0.462   0.1         0.462   0.1           1160                   1.00       1.00

- subtotal                         12.120   1.6        27.040   3.2                                  0.45       0.45

 Partitioning of  fourdp (upwards partitioning)
- fourdp                           10.948   1.5        10.979   1.3          22968                   1.00       1.00
 
- fourdp%(other)                   10.948   1.5        10.979   1.3          22968                   1.00       1.00

- subtotal                         10.948   1.5        10.979   1.3                                  1.00       1.00

 Partitioning of afterscfloop
- afterscfloop                      5.091   0.7         5.206   0.6            232                   0.98       0.98
 
- afterscfloop(forstr)              4.898   0.7         5.005   0.6            232                   0.98       0.98

- subtotal                          5.051   0.7         5.160   0.6                                  0.98       0.98

 Partitioning of forstr
- forstr                            4.788   0.6         4.886   0.6            232                   0.98       0.98
 
- forstr(forstrnps)                 1.217   0.2         1.237   0.1            232                   0.98       0.98
- forstr(forces)                    1.174   0.2         1.236   0.1            232                   0.95       0.95
- forstr(stress)                    2.397   0.3         2.413   0.3            232                   0.99       0.99

- subtotal                          4.788   0.6         4.886   0.6                                  0.98       0.98

 Partitioning of forstrnps
- forstrnps                         1.161   0.2         1.179   0.1            232                   0.98       0.98
 
- forstrnps(bef.loop band)          0.367   0.0         0.369   0.0            232                   0.99       0.99
- forstrnps(nonlop+prep_ba          0.470   0.1         0.484   0.1            232                   0.97       0.97
- forstrnps:synchr                  0.239   0.0         0.239   0.0            464                   1.00       1.00

- subtotal                          1.161   0.2         1.179   0.1                                  0.98       0.98

 Partitioning of outscfcv
- outscfcv                          0.755   0.1         0.828   0.1            232                   0.91       0.91
 
- outscfcv(preparation)             0.192   0.0         0.206   0.0            232                   0.93       0.93
- outscfcv(calcdenmagsph)           0.378   0.1         0.393   0.0            232                   0.96       0.96

- subtotal                          0.654   0.1         0.723   0.1                                  0.90       0.90

 Partitioning of lobpcgwf2 core engine
- lobpcgwf2                        33.565   4.5        56.888   6.7           1856                   0.59       0.59
 
- lobpcg_init                       0.179   0.0         0.185   0.0           1856                   0.97       0.97
- lobpcg_run                       32.964   4.4        56.268   6.6           1856                   0.59       0.59
- lobpcg_Bortho                     9.999   1.3        24.383   2.9           9280                   0.41       0.41
- lobpcg_RayleighRitz              10.440   1.4        19.288   2.3           9280                   0.54       0.54
- lobpcg_maxResidu                  0.573   0.1         0.577   0.1          16704                   0.99       0.99
- lobpcg_run@getAX_BX              11.711   1.6        11.776   1.4           9280                   0.99       0.99
- lobpcg_RayleighRitz@hegv          8.792   1.2        17.639   2.1           9280                   0.50       0.50

- subtotal                         74.672  10.0       130.129  15.3                                  0.57       0.57

 Partitioning of low-level xgBlock type
- xgBlock_potrf                     8.691   1.2        23.070   2.7           9280                   0.38       0.38
 
- xgBlock_trsm                      0.636   0.1         0.638   0.1          27840                   1.00       1.00
- xgBlock_gemm                      2.023   0.3         2.033   0.2         102080                   1.00       1.00
- xgBlock_hegvx                     8.612   1.2        17.461   2.0           7424                   0.49       0.49

- subtotal                         11.516   1.5        20.380   2.4                                  0.57       0.57
-
-Synchronisation (=leave_test) and MPI calls 
- communic.MPI                     22.516   3.0        22.592   2.7           9280                   1.00       1.00
-
- forstrnps:synchr                  0.239   0.0         0.239   0.0            464                   1.00       1.00
- alltoall%back_wf                  0.153   0.0         0.147   0.0          19952                   1.04       1.04
- alltoall%forw_wf                  0.047   0.0         0.043   0.0          18560                   1.08       1.08
- subtotal                          0.439   0.1         0.430   0.1                                  1.02       1.02

 Additional information
- timana(1)                         0.205   0.0         0.209   0.0            232                   0.98       0.98
- total timab                      27.398   3.7        27.401   3.2       45761114                   1.00       1.00
- fourwf                           18.725   2.5        18.744   2.2          17253                   1.00       1.00
- mklocl(2)                         0.135   0.0         0.135   0.0            232                   1.00       1.00
- nonlop(total)                     4.819   0.6         4.856   0.6          17949                   0.99       0.99
- xc:fourdp                         5.998   0.8         5.983   0.7          14848                   1.00       1.00
- read_rho                         59.907   8.0        59.984   7.0            232                   1.00       1.00

 timana : in multi dataset mode, the more detailed analysis is not done.

================================================================================

 Suggested references for the acknowledgment of ABINIT usage.

 The users of ABINIT have little formal obligations with respect to the ABINIT group
 (those specified in the GNU General Public License, http://www.gnu.org/copyleft/gpl.txt).
 However, it is common practice in the scientific literature,
 to acknowledge the efforts of people that have made the research possible.
 In this spirit, please find below suggested citations of work written by ABINIT developers,
 corresponding to implementations inside of ABINIT that you have used in the present run.
 Note also that it will be of great value to readers of publications presenting these results,
 to read papers enabling them to understand the theoretical formalism and details
 of the ABINIT implementation.
 For information on why they are suggested, see also https://docs.abinit.org/theory/acknowledgments.
-
- [1] Large scale ab initio calculations based on three levels of parallelization
- F. Bottin, S. Leroux, A. Knyazev, G. Zerah, Comput. Mat. Science 42, 329, (2008).
- Comment: in case LOBPCG algorithm is used (wfoptalg=4/14/114).
- Strong suggestion to cite this paper in your publications.
- This paper is also available at http://www.arxiv.org/abs/0707.3405
- DOI and bibtex: see https://docs.abinit.org/theory/bibliography/#bottin2008
-
- [2] The Abinit project: Impact, environment and recent developments.
- Computer Phys. Comm. 248, 107042 (2020).
- X.Gonze, B. Amadon, G. Antonius, F.Arnardi, L.Baguet, J.-M.Beuken,
- J.Bieder, F.Bottin, J.Bouchet, E.Bousquet, N.Brouwer, F.Bruneval,
- G.Brunin, T.Cavignac, J.-B. Charraud, Wei Chen, M.Cote, S.Cottenier,
- J.Denier, G.Geneste, Ph.Ghosez, M.Giantomassi, Y.Gillet, O.Gingras,
- D.R.Hamann, G.Hautier, Xu He, N.Helbig, N.Holzwarth, Y.Jia, F.Jollet,
- W.Lafargue-Dit-Hauret, K.Lejaeghere, M.A.L.Marques, A.Martin, C.Martins,
- H.P.C. Miranda, F.Naccarato, K. Persson, G.Petretto, V.Planes, Y.Pouillon,
- S.Prokhorenko, F.Ricci, G.-M.Rignanese, A.H.Romero, M.M.Schmitt, M.Torrent,
- M.J.van Setten, B.Van Troeye, M.J.Verstraete, G.Zerah and J.W.Zwanzig
- Comment: the fifth generic paper describing the ABINIT project.
- Note that a version of this paper, that is not formatted for Computer Phys. Comm. 
- is available at https://www.abinit.org/sites/default/files/ABINIT20.pdf .
- The licence allows the authors to put it on the Web.
- DOI and bibtex: see https://docs.abinit.org/theory/bibliography/#gonze2020
-
- [3] Optimized norm-conserving Vanderbilt pseudopotentials.
- D.R. Hamann, Phys. Rev. B 88, 085117 (2013).
- Comment: Some pseudopotential generated using the ONCVPSP code were used.
- DOI and bibtex: see https://docs.abinit.org/theory/bibliography/#hamann2013
-
- [4] ABINIT: Overview, and focus on selected capabilities
- J. Chem. Phys. 152, 124102 (2020).
- A. Romero, D.C. Allan, B. Amadon, G. Antonius, T. Applencourt, L.Baguet,
- J.Bieder, F.Bottin, J.Bouchet, E.Bousquet, F.Bruneval,
- G.Brunin, D.Caliste, M.Cote,
- J.Denier, C. Dreyer, Ph.Ghosez, M.Giantomassi, Y.Gillet, O.Gingras,
- D.R.Hamann, G.Hautier, F.Jollet, G. Jomard,
- A.Martin, 
- H.P.C. Miranda, F.Naccarato, G.Petretto, N.A. Pike, V.Planes,
- S.Prokhorenko, T. Rangel, F.Ricci, G.-M.Rignanese, M.Royo, M.Stengel, M.Torrent,
- M.J.van Setten, B.Van Troeye, M.J.Verstraete, J.Wiktor, J.W.Zwanziger, and X.Gonze.
- Comment: a global overview of ABINIT, with focus on selected capabilities .
- Note that a version of this paper, that is not formatted for J. Chem. Phys 
- is available at https://www.abinit.org/sites/default/files/ABINIT20_JPC.pdf .
- The licence allows the authors to put it on the Web.
- DOI and bibtex: see https://docs.abinit.org/theory/bibliography/#romero2020
-
- [5] Recent developments in the ABINIT software package.
- Computer Phys. Comm. 205, 106 (2016).
- X.Gonze, F.Jollet, F.Abreu Araujo, D.Adams, B.Amadon, T.Applencourt,
- C.Audouze, J.-M.Beuken, J.Bieder, A.Bokhanchuk, E.Bousquet, F.Bruneval
- D.Caliste, M.Cote, F.Dahm, F.Da Pieve, M.Delaveau, M.Di Gennaro,
- B.Dorado, C.Espejo, G.Geneste, L.Genovese, A.Gerossier, M.Giantomassi,
- Y.Gillet, D.R.Hamann, L.He, G.Jomard, J.Laflamme Janssen, S.Le Roux,
- A.Levitt, A.Lherbier, F.Liu, I.Lukacevic, A.Martin, C.Martins,
- M.J.T.Oliveira, S.Ponce, Y.Pouillon, T.Rangel, G.-M.Rignanese,
- A.H.Romero, B.Rousseau, O.Rubel, A.A.Shukri, M.Stankovski, M.Torrent,
- M.J.Van Setten, B.Van Troeye, M.J.Verstraete, D.Waroquier, J.Wiktor,
- B.Xu, A.Zhou, J.W.Zwanziger.
- Comment: the fourth generic paper describing the ABINIT project.
- Note that a version of this paper, that is not formatted for Computer Phys. Comm. 
- is available at https://www.abinit.org/sites/default/files/ABINIT16.pdf .
- The licence allows the authors to put it on the Web.
- DOI and bibtex: see https://docs.abinit.org/theory/bibliography/#gonze2016
-
- Proc.   0 individual time (sec): cpu=          3.1  wall=          3.7

================================================================================

 Calculation completed.
.Delivered   0 WARNINGs and   0 COMMENTs to log file.
+Overall time at end (sec) : cpu=        842.1  wall=        952.0
