  ABINIT 9.9.2
  
-instrng: 32 lines of input have been read from file globals

-instrng: 28 lines of input have been read from file run.abi


.Version 9.9.2 of ABINIT 
.(MPI version, prepared for a x86_64_linux_gnu11.2 computer) 

.Copyright (C) 1998-2022 ABINIT group . 
 ABINIT comes with ABSOLUTELY NO WARRANTY.
 It is free software, and you are welcome to redistribute it
 under certain conditions (GNU General Public License,
 see ~abinit/COPYING or http://www.gnu.org/copyleft/gpl.txt).

 ABINIT is a project of the Universite Catholique de Louvain,
 Corning Inc. and other collaborators, see ~abinit/doc/developers/contributors.txt .
 Please read https://docs.abinit.org/theory/acknowledgments for suggested
 acknowledgments of the ABINIT effort.
 For more information, see https://www.abinit.org .

.Starting date : Sat 11 Feb 2023.
- ( at 20h52 )
  

 ++++++++++++++++++++++++++++++++++++++++++++++++++++++++++++++++++++++++++++++

 === Build Information === 
  Version       : 9.9.2
  Build target  : x86_64_linux_gnu11.2
  Build date    : 20230211

 === Compiler Suite === 
  C compiler       : gnu11.2
  C++ compiler     : gnu11.2
  Fortran compiler : gnu11.2
  CFLAGS           : -g -O2
  CXXFLAGS         : -g -O2 -mtune=native -march=native
  FCFLAGS          : -g -O2 -fbacktrace -ffree-line-length-none -fallow-argument-mismatc ...
  FC_LDFLAGS       : 

 === Optimizations === 
  Debug level        : basic
  Optimization level : standard
  Architecture       : amd_epyc

 === Multicore === 
  Parallel build : /opt/cray/pe/mpich/8.1.12/ofi/gnu/9.1
  Parallel I/O   : 
  openMP support : no
  GPU support    : 

 === Connectors / Fallbacks === 
  LINALG flavor  : netlib
  FFT flavor     : fftw3
  HDF5           : yes
  NetCDF         : yes
  NetCDF Fortran : yes
  LibXC          : yes
  Wannier90      : no

 === Experimental features === 
  Exports             : 
  GW double-precision : no

 ++++++++++++++++++++++++++++++++++++++++++++++++++++++++++++++++++++++++++++++


 ++++++++++++++++++++++++++++++++++++++++++++++++++++++++++++++++++++++++++++++
 Default optimizations:
   --- None ---


 ++++++++++++++++++++++++++++++++++++++++++++++++++++++++++++++++++++++++++++++


 ++++++++++++++++++++++++++++++++++++++++++++++++++++++++++++++++++++++++++++++
 CPP options activated during the build:

                    CC_GNU                   CXX_GNU                    FC_GNU
 
 HAVE_FC_ALLOCATABLE_DT...             HAVE_FC_ASYNC         HAVE_FC_BACKTRACE
 
  HAVE_FC_COMMAND_ARGUMENT      HAVE_FC_COMMAND_LINE        HAVE_FC_CONTIGUOUS
 
           HAVE_FC_CPUTIME              HAVE_FC_EXIT             HAVE_FC_FLUSH
 
             HAVE_FC_GAMMA            HAVE_FC_GETENV   HAVE_FC_IEEE_ARITHMETIC
 
   HAVE_FC_IEEE_EXCEPTIONS          HAVE_FC_INT_QUAD             HAVE_FC_IOMSG
 
     HAVE_FC_ISO_C_BINDING  HAVE_FC_ISO_FORTRAN_2008        HAVE_FC_LONG_LINES
 
        HAVE_FC_MOVE_ALLOC  HAVE_FC_ON_THE_FLY_SHAPE           HAVE_FC_PRIVATE
 
         HAVE_FC_PROTECTED           HAVE_FC_SHIFTLR         HAVE_FC_STREAM_IO
 
            HAVE_FC_SYSTEM                HAVE_FFTW3            HAVE_FFTW3_MPI
 
          HAVE_FORTRAN2003                 HAVE_HDF5        HAVE_LIBPAW_ABINIT
 
      HAVE_LIBTETRA_ABINIT                HAVE_LIBXC        HAVE_LINALG_GEMM3M
 
     HAVE_LINALG_SCALAPACK                  HAVE_MPI                 HAVE_MPI2
 
       HAVE_MPI_IALLGATHER       HAVE_MPI_IALLREDUCE        HAVE_MPI_IALLTOALL
 
       HAVE_MPI_IALLTOALLV           HAVE_MPI_IBCAST         HAVE_MPI_IGATHERV
 
        HAVE_MPI_INTEGER16               HAVE_MPI_IO HAVE_MPI_TYPE_CREATE_S...
 
               HAVE_NETCDF       HAVE_NETCDF_FORTRAN             HAVE_OS_LINUX
 
         HAVE_TIMER_ABINIT                                                      
 ++++++++++++++++++++++++++++++++++++++++++++++++++++++++++++++++++++++++++++++

- input  file    -> run.abi
- output file    -> run.abo
- root for input  files -> indata_gs
- root for output files -> outdata_gs

-instrng: 32 lines of input have been read from file globals

-instrng: 28 lines of input have been read from file run.abi

 For atom type 1, psp file is Si.psp8
  read the values zionpsp=  4.0 , pspcod=   8 , lmax=   2

 inpspheads: deduce mpsang = 3, n1xccc = 2501.

======================================================= 
 invars1m : enter jdtset= 1

 symlatt: the Bravais lattice is cF (face-centered cubic)
  xred   is defined in input file
 ingeo: takes atomic coordinates from input array xred

--- !COMMENT
src_file: m_ingeo.F90
src_line: 890
message: |
    The tolerance on symmetries =   1.000E-05 is bigger than 1.0e-8.
    In order to avoid spurious effects, the atomic coordinates have been
    symmetrized before storing them in the dataset internal variable.
    So, do not be surprised by the fact that your input variables (xcart, xred, ...)
    do not correspond exactly to the ones echoed by ABINIT, the latter being used to do the calculations.
    This is not a problem per se.
    Still, in order to avoid this symmetrization (e.g. for specific debugging/development), decrease tolsym to 1.0e-8 or lower,
    or (much preferred) use input primitive vectors that are accurate to better than 1.0e-8.
    This message will only be printed once, even if there are other datasets where tolsym is bigger than 1.0e-8.
...


 symlatt: the Bravais lattice is cF (face-centered cubic)

 symlatt: the Bravais lattice is cF (face-centered cubic)
 symspgr: spgroup= 227  Fd -3 m   (=Oh^7)
 symspgr: optical characteristics = isotropic

======================================================= 
 invars1m : enter jdtset= 2

 symlatt: the Bravais lattice is cF (face-centered cubic)
  xred   is defined in input file
 ingeo: takes atomic coordinates from input array xred

 symlatt: the Bravais lattice is cF (face-centered cubic)

 symlatt: the Bravais lattice is cF (face-centered cubic)
 symspgr: spgroup= 227  Fd -3 m   (=Oh^7)
 symspgr: optical characteristics = isotropic
 invars2: read the value of fband=  2.00000000E+00 from input file.
 invars2: take the default value of fband=  1.25000000E-01
 getmpw sequential formula gave: 985

 ====================================================================================================
 Searching for all possible proc distributions for this input with #CPUs<=256:

 ~~~~~~~~~~~~~~~~~~~~~~~~~~~~~~~~~~~~~~~~~~~~~~~~~~~~~~~~~~~~~~~~~~~~~~~~~~~~~
 |       np_spkpt|       npfft|      npband|      bandpp|  #MPI(proc)|    WEIGHT|
 |    1<<   29|    1<<   12|    1<<    8|    1<<    8|    1<<  256|  <=   256|
 ~~~~~~~~~~~~~~~~~~~~~~~~~~~~~~~~~~~~~~~~~~~~~~~~~~~~~~~~~~~~~~~~~~~~~~~~~~~~~
 |          29|           2|           4|           2|         232|   210.115|
 |          29|           2|           4|           1|         232|   206.335|
 |          29|           8|           1|           8|         232|   204.954|
 |          29|           8|           1|           4|         232|   201.425|
 |          16|           2|           8|           1|         256|   196.160|
 |          29|           4|           2|           4|         232|   194.923|
 |          16|           8|           2|           4|         256|   194.560|
 |          29|           8|           1|           2|         232|   194.368|
 |          29|           4|           2|           2|         232|   192.835|
 |           8|           4|           8|           1|         256|   190.183|
 ~~~~~~~~~~~~~~~~~~~~~~~~~~~~~~~~~~~~~~~~~~~~~~~~~~~~~~~~~~~~~~~~~~~~~~~~~~~~~
 Only the best possible choices for nproc are printed...

 >>> Possible (best) choices for the number of bands (nband) are:
     with: np_spkpt=29 npfft=2
     nband=     8 using    232 CPUs =   232 MPI x  1 threads (npband=    4)
 >>> The present nband value (     8) seems to be a good choice!
 ====================================================================================================


 For input ecut=  1.800000E+01 best grid ngfft=      30      30      30
       max ecut=  2.114227E+01

 ==== FFT mesh ====
  FFT mesh divisions ........................    30   30   30
  Augmented FFT divisions ...................    31   31   30
  FFT algorithm .............................   312
  FFT cache size ............................    16
 Relative gap for number of plane waves between process (%):  0.64
 Relative gap for number of plane waves between process (%):  1.25
 Relative gap for number of plane waves between process (%):  0.83
 Relative gap for number of plane waves between process (%):  0.81
 Relative gap for number of plane waves between process (%):  2.04
 Relative gap for number of plane waves between process (%):  1.65
 Relative gap for number of plane waves between process (%):  0.00
 Relative gap for number of plane waves between process (%):  1.21
 Relative gap for number of plane waves between process (%):  2.43
 Relative gap for number of plane waves between process (%):  2.83
 Relative gap for number of plane waves between process (%):  0.82
 Relative gap for number of plane waves between process (%):  1.45
 Relative gap for number of plane waves between process (%):  0.81
 Relative gap for number of plane waves between process (%):  0.60
 Relative gap for number of plane waves between process (%):  1.62
 Relative gap for number of plane waves between process (%):  3.87
 Relative gap for number of plane waves between process (%):  1.42
 Relative gap for number of plane waves between process (%):  0.00
 Relative gap for number of plane waves between process (%):  1.01
 Relative gap for number of plane waves between process (%):  1.02
 Relative gap for number of plane waves between process (%):  0.00
 Relative gap for number of plane waves between process (%):  0.41
 Relative gap for number of plane waves between process (%):  1.21
 Relative gap for number of plane waves between process (%):  0.41
 Relative gap for number of plane waves between process (%):  0.60
 Relative gap for number of plane waves between process (%):  1.01
 Relative gap for number of plane waves between process (%):  1.61
 Relative gap for number of plane waves between process (%):  0.00
 Relative gap for number of plane waves between process (%):  0.00
 getmpw: optimal value of mpw= 126

--- !WARNING
src_file: m_mpinfo.F90
src_line: 2337
message: |
    nproc_spkpt= 256 >= nkpt= 29* nsppol= 1
    The number of processors is larger than nkpt*nsppol. This is a WASTE.
     Ignore this warning if this is not a GS run
...

 For input ecut=  1.800000E+01 best grid ngfft=      30      30      30
       max ecut=  2.114227E+01

 ==== FFT mesh ====
  FFT mesh divisions ........................    30   30   30
  Augmented FFT divisions ...................    31   31   30
  FFT algorithm .............................   312
  FFT cache size ............................    16
 getmpw: optimal value of mpw= 995

 DATASET    1 : space group Fd -3 m (#227); Bravais cF (face-center cubic)

 getdim_nloc: deduce lmnmax  =  18, lnmax  =   6,
                      lmnmaxso=  18, lnmaxso=   6.
memory: analysis of memory needs
================================================================================
 Values of the parameters that define the memory need for DATASET  1.
     intxc =       0    ionmov =       0      iscf =       7    lmnmax =       6
     lnmax =       6     mgfft =      30  mpssoang =       3    mqgrid =    3001
     natom =       2  nloc_mem =       1    nspden =       1   nspinor =       1
    nsppol =       1      nsym =      48    n1xccc =    2501    ntypat =       1
    occopt =       1   xclevel =       2
-    mband =           8        mffmem =           1         mkmem =           1
       mpw =         126          nfft =       13500          nkpt =          29
================================================================================
P This job should need less than                       5.805 Mbytes of memory.
  Rough estimation (10% accuracy) of disk space for files :
_ WF disk file :      0.894 Mbytes ; DEN or POT disk file :      0.105 Mbytes.
================================================================================

 Biggest array : f_fftgr(disk), with      1.6499 MBytes.
 memana : allocated an array of      1.650 Mbytes, for testing purposes.
 memana: allocated       5.805Mbytes, for testing purposes. 
 The job will continue.

 DATASET    2 : space group Fd -3 m (#227); Bravais cF (face-center cubic)

 getdim_nloc: deduce lmnmax  =  18, lnmax  =   6,
                      lmnmaxso=  18, lnmaxso=   6.
memory: analysis of memory needs
================================================================================
 Values of the parameters that define the memory need for DATASET  2.
     intxc =       0    ionmov =       0      iscf =       7    lmnmax =       6
     lnmax =       6     mgfft =      30  mpssoang =       3    mqgrid =    3001
     natom =       2  nloc_mem =       1    nspden =       1   nspinor =       1
    nsppol =       1      nsym =      48    n1xccc =    2501    ntypat =       1
    occopt =       1   xclevel =       2
-    mband =           5        mffmem =           1         mkmem =           1
       mpw =         995          nfft =       27000          nkpt =          29
================================================================================
P This job should need less than                       9.495 Mbytes of memory.
  Rough estimation (10% accuracy) of disk space for files :
_ WF disk file :      2.203 Mbytes ; DEN or POT disk file :      0.208 Mbytes.
================================================================================

 Biggest array : f_fftgr(disk), with      3.2979 MBytes.
--------------------------------------------------------------------------------
------------- Echo of variables that govern the present computation ------------
--------------------------------------------------------------------------------
-
- outvars: echo of selected default values                                      
-   iomode0 =  0 , fftalg0 =312 , wfoptalg0 =  0
-
- outvars: echo of global parameters not present in the input file              
-  max_nthreads =    0
-
 -outvars: echo values of preprocessed input variables --------
 
 These variables are accessible in NetCDF format (outdata_gs_OUT.nc)

-          iomode1          1
-          iomode2          0
            acell      1.0260000000E+01  1.0260000000E+01  1.0260000000E+01 Bohr
              amu      2.80855000E+01
        autoparal1          1
        autoparal2          0
           bandpp1          2
           bandpp2          1
     densfor_pred1          6
     densfor_pred2          2
           diemac      1.20000000E+01
             ecut      1.80000000E+01 Hartree
-          fftalg         312
           getden1          0
           getden2         -1
           istwfk        1    0    0    0    1    0    0    0    0    0
                         0    0    0    0    0    0    0    0    0    0
                         1    0    0    0    0    0    0    0    0
              ixc          11
           jdtset        1    2
              kpt      0.00000000E+00  0.00000000E+00  0.00000000E+00
                       1.25000000E-01  0.00000000E+00  0.00000000E+00
                       2.50000000E-01  0.00000000E+00  0.00000000E+00
                       3.75000000E-01  0.00000000E+00  0.00000000E+00
                       5.00000000E-01  0.00000000E+00  0.00000000E+00
                       1.25000000E-01  1.25000000E-01  0.00000000E+00
                       2.50000000E-01  1.25000000E-01  0.00000000E+00
                       3.75000000E-01  1.25000000E-01  0.00000000E+00
                       5.00000000E-01  1.25000000E-01  0.00000000E+00
                      -3.75000000E-01  1.25000000E-01  0.00000000E+00
                      -2.50000000E-01  1.25000000E-01  0.00000000E+00
                      -1.25000000E-01  1.25000000E-01  0.00000000E+00
                       2.50000000E-01  2.50000000E-01  0.00000000E+00
                       3.75000000E-01  2.50000000E-01  0.00000000E+00
                       5.00000000E-01  2.50000000E-01  0.00000000E+00
                      -3.75000000E-01  2.50000000E-01  0.00000000E+00
                      -2.50000000E-01  2.50000000E-01  0.00000000E+00
                       3.75000000E-01  3.75000000E-01  0.00000000E+00
                       5.00000000E-01  3.75000000E-01  0.00000000E+00
                      -3.75000000E-01  3.75000000E-01  0.00000000E+00
                       5.00000000E-01  5.00000000E-01  0.00000000E+00
                       3.75000000E-01  2.50000000E-01  1.25000000E-01
                       5.00000000E-01  2.50000000E-01  1.25000000E-01
                      -3.75000000E-01  2.50000000E-01  1.25000000E-01
                       5.00000000E-01  3.75000000E-01  1.25000000E-01
                      -3.75000000E-01  3.75000000E-01  1.25000000E-01
                      -2.50000000E-01  3.75000000E-01  1.25000000E-01
                      -3.75000000E-01  5.00000000E-01  1.25000000E-01
                      -2.50000000E-01  5.00000000E-01  2.50000000E-01
         kptrlatt        8    0    0      0    8    0      0    0    8
          kptrlen      5.80393246E+01
P           mkmem           1
            natom           2
            nband1          8
            nband2          5
           ndtset           2
            ngfft          30      30      30
             nkpt          29
-          npband1          4
-          npband2          1
-           npfft1          2
-           npfft2          1
-        np_spkpt1         29
-        np_spkpt2          1
            nstep          50
             nsym          48
           ntypat           1
              occ1     2.000000  2.000000  2.000000  2.000000  0.000000  0.000000
                       0.000000  0.000000
              occ2     2.000000  2.000000  2.000000  2.000000  0.000000
        optdriver1          0
        optdriver2          6
           ortalg1         -2
           ortalg2          2
        paral_kgb1          1
        paral_kgb2          0
            rprim      0.0000000000E+00  5.0000000000E-01  5.0000000000E-01
                       5.0000000000E-01  0.0000000000E+00  5.0000000000E-01
                       5.0000000000E-01  5.0000000000E-01  0.0000000000E+00
          spgroup         227
           symrel      1  0  0   0  1  0   0  0  1      -1  0  0   0 -1  0   0  0 -1
                       0 -1  1   0 -1  0   1 -1  0       0  1 -1   0  1  0  -1  1  0
                      -1  0  0  -1  0  1  -1  1  0       1  0  0   1  0 -1   1 -1  0
                       0  1 -1   1  0 -1   0  0 -1       0 -1  1  -1  0  1   0  0  1
                      -1  0  0  -1  1  0  -1  0  1       1  0  0   1 -1  0   1  0 -1
                       0 -1  1   1 -1  0   0 -1  0       0  1 -1  -1  1  0   0  1  0
                       1  0  0   0  0  1   0  1  0      -1  0  0   0  0 -1   0 -1  0
                       0  1 -1   0  0 -1   1  0 -1       0 -1  1   0  0  1  -1  0  1
                      -1  0  1  -1  1  0  -1  0  0       1  0 -1   1 -1  0   1  0  0
                       0 -1  0   1 -1  0   0 -1  1       0  1  0  -1  1  0   0  1 -1
                       1  0 -1   0  0 -1   0  1 -1      -1  0  1   0  0  1   0 -1  1
                       0  1  0   0  0  1   1  0  0       0 -1  0   0  0 -1  -1  0  0
                       1  0 -1   0  1 -1   0  0 -1      -1  0  1   0 -1  1   0  0  1
                       0 -1  0   0 -1  1   1 -1  0       0  1  0   0  1 -1  -1  1  0
                      -1  0  1  -1  0  0  -1  1  0       1  0 -1   1  0  0   1 -1  0
                       0  1  0   1  0  0   0  0  1       0 -1  0  -1  0  0   0  0 -1
                       0  0 -1   0  1 -1   1  0 -1       0  0  1   0 -1  1  -1  0  1
                       1 -1  0   0 -1  1   0 -1  0      -1  1  0   0  1 -1   0  1  0
                       0  0  1   1  0  0   0  1  0       0  0 -1  -1  0  0   0 -1  0
                      -1  1  0  -1  0  0  -1  0  1       1 -1  0   1  0  0   1  0 -1
                       0  0  1   0  1  0   1  0  0       0  0 -1   0 -1  0  -1  0  0
                       1 -1  0   0 -1  0   0 -1  1      -1  1  0   0  1  0   0  1 -1
                       0  0 -1   1  0 -1   0  1 -1       0  0  1  -1  0  1   0 -1  1
                      -1  1  0  -1  0  1  -1  0  0       1 -1  0   1  0 -1   1  0  0
           timopt          -1
            tnons      0.0000000  0.0000000  0.0000000     0.2500000  0.2500000  0.2500000
                       0.0000000  0.0000000  0.0000000     0.2500000  0.2500000  0.2500000
                       0.0000000  0.0000000  0.0000000     0.2500000  0.2500000  0.2500000
                       0.0000000  0.0000000  0.0000000     0.2500000  0.2500000  0.2500000
                       0.0000000  0.0000000  0.0000000     0.2500000  0.2500000  0.2500000
                       0.0000000  0.0000000  0.0000000     0.2500000  0.2500000  0.2500000
                       0.0000000  0.0000000  0.0000000     0.2500000  0.2500000  0.2500000
                       0.0000000  0.0000000  0.0000000     0.2500000  0.2500000  0.2500000
                       0.0000000  0.0000000  0.0000000     0.2500000  0.2500000  0.2500000
                       0.0000000  0.0000000  0.0000000     0.2500000  0.2500000  0.2500000
                       0.0000000  0.0000000  0.0000000     0.2500000  0.2500000  0.2500000
                       0.0000000  0.0000000  0.0000000     0.2500000  0.2500000  0.2500000
                       0.0000000  0.0000000  0.0000000     0.2500000  0.2500000  0.2500000
                       0.0000000  0.0000000  0.0000000     0.2500000  0.2500000  0.2500000
                       0.0000000  0.0000000  0.0000000     0.2500000  0.2500000  0.2500000
                       0.0000000  0.0000000  0.0000000     0.2500000  0.2500000  0.2500000
                       0.0000000  0.0000000  0.0000000     0.2500000  0.2500000  0.2500000
                       0.0000000  0.0000000  0.0000000     0.2500000  0.2500000  0.2500000
                       0.0000000  0.0000000  0.0000000     0.2500000  0.2500000  0.2500000
                       0.0000000  0.0000000  0.0000000     0.2500000  0.2500000  0.2500000
                       0.0000000  0.0000000  0.0000000     0.2500000  0.2500000  0.2500000
                       0.0000000  0.0000000  0.0000000     0.2500000  0.2500000  0.2500000
                       0.0000000  0.0000000  0.0000000     0.2500000  0.2500000  0.2500000
                       0.0000000  0.0000000  0.0000000     0.2500000  0.2500000  0.2500000
           tolvrs1     1.00000000E-08
           tolvrs2     0.00000000E+00
            typat      1  1
         wfoptalg1        114
         wfoptalg2          0
              wtk        0.00195    0.01563    0.01563    0.01563    0.00781    0.01172
                         0.04688    0.04688    0.04688    0.04688    0.04688    0.02344
                         0.01172    0.04688    0.04688    0.04688    0.02344    0.01172
                         0.04688    0.02344    0.00586    0.04688    0.09375    0.04688
                         0.04688    0.09375    0.04688    0.02344    0.01172
           xangst      0.0000000000E+00  0.0000000000E+00  0.0000000000E+00
                       1.3573395400E+00  1.3573395400E+00  1.3573395400E+00
            xcart      0.0000000000E+00  0.0000000000E+00  0.0000000000E+00
                       2.5650000000E+00  2.5650000000E+00  2.5650000000E+00
             xred      0.0000000000E+00  0.0000000000E+00  0.0000000000E+00
                       2.5000000000E-01  2.5000000000E-01  2.5000000000E-01
            znucl       14.00000

================================================================================

 chkinp: Checking input parameters for consistency, jdtset=   1.

 chkinp: Checking input parameters for consistency, jdtset=   2.
 DATA TYPE INFORMATION: 
 REAL:      Data type name: REAL(DP) 
            Kind value:      8
            Precision:      15
            Smallest nonnegligible quantity relative to 1: 0.22204460E-015
            Smallest positive number:                      0.22250739E-307
            Largest representable number:                  0.17976931E+309
 INTEGER:   Data type name: INTEGER(default) 
            Kind value: 4
            Bit size:   32
            Largest representable number: 2147483647
 LOGICAL:   Data type name: LOGICAL 
            Kind value: 4
 CHARACTER: Data type name: CHARACTER             Kind value: 1

  ==== OpenMP parallelism is OFF ====
 
  ==== Using MPI-2 specifications ==== 
  MPI-IO support is ON
  xmpi_tag_ub ................     33554431
  xmpi_bsize_ch ..............            1
  xmpi_bsize_int .............            4
  xmpi_bsize_sp ..............            4
  xmpi_bsize_dp ..............            8
  xmpi_bsize_spc .............            8
  xmpi_bsize_dpc .............           16
  xmpio_bsize_frm ............            4
  xmpi_address_kind ..........            8
  xmpi_offset_kind ...........            8
  MPI_WTICK ..................    2.9000000000000002E-008

================================================================================
== DATASET  1 ==================================================================
-   mpi_nproc: 232, omp_nthreads: -1 (-1 if OMP is not activated)


--- !COMMENT
src_file: m_xgScalapack.F90
src_line: 230
message: |
    xgScalapack in auto mode
...


 getdim_nloc: deduce lmnmax  =  18, lnmax  =   6,
                      lmnmaxso=  18, lnmaxso=   6.
 Exchange-correlation functional for the present dataset will be:
  GGA: Perdew-Burke-Ernzerhof functional - ixc=11
 Citation for XC functional:
  J.P.Perdew, K.Burke, M.Ernzerhof, PRL 77, 3865 (1996)

 Unit cell volume ucvol=  2.7001139E+02 bohr^3
 Angles (23,13,12)=  6.00000000E+01  6.00000000E+01  6.00000000E+01 degrees

 getcut: wavevector=  0.0000  0.0000  0.0000  ngfft=  30  30  30
         ecut(hartree)=     18.000   => boxcut(ratio)=   2.16755
 Relative gap for number of plane waves between process (%):  0.64
- pspini: atom type   1  psp file is Si.psp8
- pspatm: opening atomic psp file    Si.psp8
- Si    ONCVPSP-3.2.3.1  r_core=   1.60303   1.72197   1.91712
- 14.00000   4.00000    170510                znucl, zion, pspdat
    8   11    2    4       600   0.00000      pspcod,pspxc,lmax,lloc,mmax,r2well
    5.99000000000000    4.00000000000000    0.00000000000000   rchrg,fchrg,qchrg
     nproj     2     2     2
     extension_switch     1
  valence charge (before rescaling) integrates to:    3.9532830469664955     
  pspatm : epsatm=    9.34321699
         --- l  ekb(1:nproj) -->
             0    5.168965    0.829883
             1    2.571282    0.578307
             2   -2.427311   -0.488097
 pspatm: atomic psp has been read  and splines computed

   1.49491472E+02                                ecore*ucvol(ha*bohr**3)
 ==== Info on pseudopotentials ====
  Norm-conserving pseudopotentials
  Number of pseudopotentials ..    1
  Number of types of atoms   ..    1
  Scalar calculation (no spin-orbit term)
  Nonlocal part applied using Legendre polynomials
  Max number of non-local projectors over l and type   2
  Highest angular momentum +1 .......   3
  Max number of (l,n)   components ..   6
  Max number of (l,m,n) components ..   6

 Pseudo-Core Charge Info: 
   Number of radial points for pseudo-core charge .. 2501
   XC core-correction treatment (optnlxccc) ........    1
   Radius for pseudo-core charge for each type ..... 

  - Atom type    1 has pseudo-core radius ..  5.9900

 Info on the Q-grid used for form factors in spline form: 
   Number of q-points for radial functions ffspl ..   3001
   Number of q-points for vlspl ...................   3001
   vloc is computed in Reciprocal Space
   model core charge treated in real-space

  XC functional for type 1 is 11
  Pseudo valence available: yes

 symatm: atom number 1 is reached starting at atom
   1  2  1  2  1  2  1  2  1  2  1  2  1  2  1  2  1  2  1  2  1  2  1  2
   1  2  1  2  1  2  1  2  1  2  1  2  1  2  1  2  1  2  1  2  1  2  1  2
 symatm: atom number 2 is reached starting at atom
   2  1  2  1  2  1  2  1  2  1  2  1  2  1  2  1  2  1  2  1  2  1  2  1
   2  1  2  1  2  1  2  1  2  1  2  1  2  1  2  1  2  1  2  1  2  1  2  1
 wfconv:     8 bands initialized randomly with npw=   118, for ikpt=     1
_setup2: Arith. and geom. avg. npw (full set) are     124.229     124.222
 initro: for itypat=  1, take pseudo charge density from pp file

================================================================================

 getcut: wavevector=  0.0000  0.0000  0.0000  ngfft=  30  30  30
         ecut(hartree)=     18.000   => boxcut(ratio)=   2.16755

 1/G**2 cut-off applied in the following step : cutoff-mode = CRYSTAL

 1/G**2 cut-off applied in the following step : cutoff-mode = CRYSTAL

 1/G**2 cut-off applied in the following step : cutoff-mode = CRYSTAL

 ITER STEP NUMBER     1
 Max number of non-self-consistent loops: 2
- Will use non-blocking ialltoall for MPI-FFT
 Total charge density [el/Bohr^3]
)     Maximum=    8.9647E-02  at reduced coord.    0.1000    0.1000    0.2000
)     Minimum=    1.5590E-03  at reduced coord.    0.0000    0.0000    0.0000
   Integrated=    8.0000E+00

 1/G**2 cut-off applied in the following step : cutoff-mode = CRYSTAL
 ETOT  1  -8.4603479814177    -8.460E+00 2.008E-04 6.577E+00
 scprqt: <Vxc>= -3.3905370E-01 hartree

 Simple mixing update:
  residual square of the potential:    3.0131518766417846
{SCF_istep: 1 , Vnl|psi>: 24 , wall_time: '  0.27 [s] '} <<< TIME

 ITER STEP NUMBER     2
 Max number of non-self-consistent loops: 2
 Total charge density [el/Bohr^3]
)     Maximum=    8.5918E-02  at reduced coord.    0.1000    0.1000    0.2000
)     Minimum=    1.5387E-03  at reduced coord.    0.0000    0.0000    0.0000
   Integrated=    8.0000E+00
 ETOT  2  -8.4622240904702    -1.876E-03 1.992E-05 1.045E-01
 scprqt: <Vxc>= -3.4117466E-01 hartree

 Pulay update with  1 previous iterations:
 mixing of old trial potential: alpha(m:m-4)=   1.11     -0.113
{SCF_istep: 2 , Vnl|psi>: 24 , wall_time: '  0.14 [s] '} <<< TIME

 ITER STEP NUMBER     3
 Total charge density [el/Bohr^3]
)     Maximum=    8.5593E-02  at reduced coord.    0.1000    0.1000    0.2000
)     Minimum=    1.5403E-03  at reduced coord.    0.0000    0.0000    0.0000
   Integrated=    8.0000E+00
 ETOT  3  -8.4622474560716    -2.337E-05 1.412E-05 1.694E-03
 scprqt: <Vxc>= -3.4144942E-01 hartree

 Pulay update with  2 previous iterations:
 mixing of old trial potential: alpha(m:m-4)=   1.21     -0.230      0.192E-01
{SCF_istep: 3 , Vnl|psi>: 12 , wall_time: '  0.02 [s] '} <<< TIME

 ITER STEP NUMBER     4
 Total charge density [el/Bohr^3]
)     Maximum=    8.5591E-02  at reduced coord.    0.1000    0.1000    0.2000
)     Minimum=    1.5408E-03  at reduced coord.    0.0000    0.0000    0.0000
   Integrated=    8.0000E+00
 ETOT  4  -8.4622476582966    -2.022E-07 2.097E-06 6.731E-05
 scprqt: <Vxc>= -3.4147405E-01 hartree

 Pulay update with  3 previous iterations:
 mixing of old trial potential: alpha(m:m-4)=   1.34     -0.392      0.580E-01 -0.530E-02
{SCF_istep: 4 , Vnl|psi>: 12 , wall_time: '  0.02 [s] '} <<< TIME

 ITER STEP NUMBER     5
 Total charge density [el/Bohr^3]
)     Maximum=    8.5588E-02  at reduced coord.    0.1000    0.1000    0.2000
)     Minimum=    1.5408E-03  at reduced coord.    0.0000    0.0000    0.0000
   Integrated=    8.0000E+00
 ETOT  5  -8.4622476647408    -6.444E-09 4.943E-07 6.791E-07
 scprqt: <Vxc>= -3.4147962E-01 hartree

 Pulay update with  4 previous iterations:
 mixing of old trial potential: alpha(m:m-4)=   1.20     -0.239      0.472E-01 -0.600E-02  0.556E-03
{SCF_istep: 5 , Vnl|psi>: 12 , wall_time: '  0.02 [s] '} <<< TIME

 ITER STEP NUMBER     6
 Total charge density [el/Bohr^3]
)     Maximum=    8.5588E-02  at reduced coord.    0.1000    0.1000    0.2000
)     Minimum=    1.5408E-03  at reduced coord.    0.0000    0.0000    0.0000
   Integrated=    8.0000E+00
 ETOT  6  -8.4622476647810    -4.020E-11 2.306E-07 4.730E-09
 scprqt: <Vxc>= -3.4148003E-01 hartree

 At SCF step    6       vres2   =  4.73E-09 < tolvrs=  1.00E-08 =>converged.
 
 -------------------------------------------------------------------------------------------------
 Ekinetic   = :     3.070187E+00 Ha ,    8.354404E+01 eV
 Evext_l    = :    -2.294885E+00 Ha ,   -6.244700E+01 eV
 Evext_nl   = :     1.153984E+00 Ha ,    3.140150E+01 eV
 Epsp_core  = :     5.536488E-01 Ha ,    1.506555E+01 eV
 Ehartree   = :     5.477560E-01 Ha ,    1.490520E+01 eV
 Exc_ks     = :    -3.092474E+00 Ha ,   -8.415048E+01 eV
 Enn        = :    -8.400465E+00 Ha ,   -2.285883E+02 eV
 -------------------------------------------------------------------------------------------------
 Etot       = :    -8.462248E+00 Ha ,   -2.302695E+02 eV
 -------------------------------------------------------------------------------------------------
 Computing residual forces using atomic densities taken from pseudos

 Cartesian components of stress tensor (hartree/bohr^3)
  sigma(1 1)= -6.82137457E-05  sigma(3 2)=  0.00000000E+00
  sigma(2 2)= -6.82137457E-05  sigma(3 1)=  0.00000000E+00
  sigma(3 3)= -6.82137457E-05  sigma(2 1)=  0.00000000E+00


 fftdatar_write: About to write data to: outdata_gs_DS1_DEN with iomode: IO_MODE_MPI
 IO operation , wall:  0.03 [s] , cpu:  0.00 [s] <<< TIME
- Creating netcdf file WITHOUT MPI-IO support: outdata_gs_DS1_GSR.nc
 Integrated electronic density in atomic spheres:
 ------------------------------------------------
 Atom  Sphere_radius  Integrated_density
    1        2.00000          1.78616649
    2        2.00000          1.75393465
================================================================================

 ----iterations are completed or convergence reached----


 === Gap info ===
  >>>> For spin  1
   Minimum direct gap =   2.5559 [eV], located at k-point      :   0.0000  0.0000  0.0000
   Fundamental gap    =   0.6117 [eV], Top of valence bands at :   0.0000  0.0000  0.0000
                                       Bottom of conduction at :   0.3750  0.3750  0.0000
 Mean square residual over all n,k,spin=   18.341E-10; max=  23.057E-08
   0.0000  0.0000  0.0000    1  2.65061E-17 kpt; spin; max resid(k); each band:
  2.65E-17 1.15E-18 1.15E-18 1.15E-18 5.15E-18 2.36E-18 2.76E-18 8.26E-18
   0.1250  0.0000  0.0000    1  6.75289E-16 kpt; spin; max resid(k); each band:
  4.45E-17 2.56E-17 1.12E-17 1.12E-17 1.25E-16 3.59E-17 3.59E-17 6.75E-16
   0.2500  0.0000  0.0000    1  1.98158E-10 kpt; spin; max resid(k); each band:
  3.93E-17 3.20E-17 1.41E-18 1.30E-18 4.13E-16 3.32E-16 6.06E-16 1.98E-10
   0.3750  0.0000  0.0000    1  5.55387E-12 kpt; spin; max resid(k); each band:
  2.46E-17 3.57E-17 1.97E-18 1.46E-18 9.34E-16 6.72E-16 4.93E-16 5.55E-12
   0.5000  0.0000  0.0000    1  5.96281E-15 kpt; spin; max resid(k); each band:
  1.54E-17 4.86E-17 1.68E-18 1.68E-18 1.75E-15 3.21E-17 3.21E-17 5.96E-15
   0.1250  0.1250  0.0000    1  1.05886E-13 kpt; spin; max resid(k); each band:
  2.97E-17 4.93E-17 2.12E-18 2.10E-18 5.97E-17 1.10E-17 9.94E-18 1.06E-13
   0.2500  0.1250  0.0000    1  3.02905E-14 kpt; spin; max resid(k); each band:
  5.75E-17 1.29E-17 1.84E-18 2.84E-17 6.02E-16 1.76E-15 2.02E-16 3.03E-14
   0.3750  0.1250  0.0000    1  3.44921E-15 kpt; spin; max resid(k); each band:
  6.00E-17 1.92E-17 1.87E-17 1.97E-18 1.15E-15 2.92E-16 1.44E-16 3.45E-15
   0.5000  0.1250  0.0000    1  3.34252E-13 kpt; spin; max resid(k); each band:
  1.52E-17 2.27E-17 3.10E-17 2.59E-18 9.18E-16 4.48E-16 4.92E-17 3.34E-13
  -0.3750  0.1250  0.0000    1  2.30570E-07 kpt; spin; max resid(k); each band:
  2.53E-17 4.32E-17 3.93E-17 5.53E-18 2.09E-16 2.88E-15 3.02E-16 2.31E-07
  -0.2500  0.1250  0.0000    1  1.89588E-10 kpt; spin; max resid(k); each band:
  3.21E-17 1.30E-17 1.93E-17 3.69E-18 3.29E-16 3.70E-16 1.74E-15 1.90E-10
  -0.1250  0.1250  0.0000    1  5.30392E-12 kpt; spin; max resid(k); each band:
  3.91E-17 2.01E-17 6.77E-18 1.16E-18 2.01E-17 1.53E-18 1.79E-16 5.30E-12
   0.2500  0.2500  0.0000    1  4.96731E-15 kpt; spin; max resid(k); each band:
  3.08E-17 5.77E-18 7.34E-19 8.06E-19 1.03E-16 4.97E-15 1.62E-16 1.86E-16
   0.3750  0.2500  0.0000    1  4.49119E-16 kpt; spin; max resid(k); each band:
  5.66E-17 7.36E-18 2.06E-17 2.55E-18 1.71E-16 3.90E-16 2.24E-16 4.49E-16
   0.5000  0.2500  0.0000    1  3.80678E-16 kpt; spin; max resid(k); each band:
  1.48E-17 6.99E-18 2.65E-17 3.71E-18 3.09E-16 2.70E-16 3.81E-16 1.20E-16
  -0.3750  0.2500  0.0000    1  2.03143E-13 kpt; spin; max resid(k); each band:
  9.27E-18 2.08E-17 1.76E-17 4.06E-18 1.09E-15 1.41E-15 1.08E-15 2.03E-13
  -0.2500  0.2500  0.0000    1  1.49136E-10 kpt; spin; max resid(k); each band:
  9.32E-18 8.66E-18 1.35E-17 2.16E-17 1.92E-16 1.61E-19 6.68E-15 1.49E-10
   0.3750  0.3750  0.0000    1  1.61056E-15 kpt; spin; max resid(k); each band:
  2.84E-17 9.98E-18 2.85E-18 3.19E-18 1.65E-16 1.94E-16 1.13E-15 1.61E-15
   0.5000  0.3750  0.0000    1  4.07037E-14 kpt; spin; max resid(k); each band:
  1.44E-17 9.16E-18 2.41E-17 4.86E-18 3.57E-16 8.94E-17 6.59E-15 4.07E-14
  -0.3750  0.3750  0.0000    1  1.91637E-07 kpt; spin; max resid(k); each band:
  5.63E-18 1.73E-17 2.66E-17 2.40E-17 6.18E-16 1.20E-16 3.69E-12 1.92E-07
   0.5000  0.5000  0.0000    1  1.92936E-11 kpt; spin; max resid(k); each band:
  1.24E-17 2.20E-17 8.60E-18 1.77E-17 1.38E-16 1.02E-16 4.38E-12 1.93E-11
   0.3750  0.2500  0.1250    1  1.44051E-15 kpt; spin; max resid(k); each band:
  6.39E-17 8.01E-18 1.19E-17 6.03E-18 3.35E-16 1.09E-15 9.89E-16 1.44E-15
   0.5000  0.2500  0.1250    1  1.38130E-15 kpt; spin; max resid(k); each band:
  1.70E-17 7.61E-18 3.35E-17 1.29E-17 4.60E-16 4.56E-16 5.35E-16 1.38E-15
  -0.3750  0.2500  0.1250    1  2.70726E-09 kpt; spin; max resid(k); each band:
  1.98E-17 3.17E-17 1.56E-17 2.58E-17 9.97E-17 2.71E-15 7.62E-17 2.71E-09
   0.5000  0.3750  0.1250    1  1.53690E-14 kpt; spin; max resid(k); each band:
  1.69E-17 4.47E-18 2.92E-17 2.06E-17 1.41E-16 4.14E-16 6.54E-16 1.54E-14
  -0.3750  0.3750  0.1250    1  7.89996E-12 kpt; spin; max resid(k); each band:
  9.77E-18 8.06E-18 4.95E-17 2.40E-17 2.83E-16 3.82E-15 1.48E-16 7.90E-12
  -0.2500  0.3750  0.1250    1  7.44701E-12 kpt; spin; max resid(k); each band:
  1.65E-17 1.08E-17 3.53E-17 2.18E-17 6.02E-16 4.71E-15 3.96E-16 7.45E-12
  -0.3750  0.5000  0.1250    1  7.00074E-15 kpt; spin; max resid(k); each band:
  1.19E-17 1.19E-17 4.17E-17 4.18E-17 1.73E-16 1.75E-16 7.00E-15 6.75E-15
  -0.2500  0.5000  0.2500    1  5.73469E-16 kpt; spin; max resid(k); each band:
  3.27E-18 3.28E-18 2.78E-17 2.78E-17 5.73E-16 5.73E-16 8.72E-17 8.74E-17

   outwf: writing wavefunctions to: outdata_gs_DS1_WFK with iomode: IO_MODE_MPI
 WFK output , wall:  0.52 [s] , cpu:  0.47 [s] <<< TIME
 prteigrs : about to open file outdata_gs_DS1_EIG
 Fermi (or HOMO) energy (hartree) =   0.16007   Average Vxc (hartree)=  -0.34148
 Eigenvalues (hartree) for nkpt=  29  k points:
 kpt#   1, nband=  8, wtk=  0.00195, kpt=  0.0000  0.0000  0.0000 (reduced coord)
  -0.27980    0.16007    0.16007    0.16007    0.25399    0.25399    0.25399    0.28315
 kpt#   2, nband=  8, wtk=  0.01563, kpt=  0.1250  0.0000  0.0000 (reduced coord)
  -0.27229    0.10117    0.14940    0.14940    0.25173    0.26963    0.26963    0.33281
 kpt#   3, nband=  8, wtk=  0.01563, kpt=  0.2500  0.0000  0.0000 (reduced coord)
  -0.25041    0.01554    0.13206    0.13206    0.23435    0.28872    0.28872    0.41406
 kpt#   4, nband=  8, wtk=  0.01563, kpt=  0.3750  0.0000  0.0000 (reduced coord)
  -0.21756   -0.05874    0.12002    0.12002    0.22101    0.28676    0.28676    0.44983
 kpt#   5, nband=  8, wtk=  0.00781, kpt=  0.5000  0.0000  0.0000 (reduced coord)
  -0.19411   -0.09633    0.11590    0.11590    0.21631    0.28269    0.28269    0.44422
 kpt#   6, nband=  8, wtk=  0.01172, kpt=  0.1250  0.1250  0.0000 (reduced coord)
  -0.26977    0.11092    0.13033    0.13033    0.23378    0.29600    0.29600    0.32125
 kpt#   7, nband=  8, wtk=  0.04688, kpt=  0.2500  0.1250  0.0000 (reduced coord)
  -0.25254    0.04138    0.11149    0.11428    0.23885    0.29604    0.32413    0.33471
 kpt#   8, nband=  8, wtk=  0.04688, kpt=  0.3750  0.1250  0.0000 (reduced coord)
  -0.22259   -0.03439    0.09252    0.10162    0.24251    0.29371    0.32404    0.36104
 kpt#   9, nband=  8, wtk=  0.04688, kpt=  0.5000  0.1250  0.0000 (reduced coord)
  -0.19092   -0.08819    0.07612    0.10252    0.24052    0.28914    0.31067    0.43090
 kpt#  10, nband=  8, wtk=  0.04688, kpt= -0.3750  0.1250  0.0000 (reduced coord)
  -0.19991   -0.07456    0.06944    0.11344    0.24661    0.29318    0.30211    0.45091
 kpt#  11, nband=  8, wtk=  0.04688, kpt= -0.2500  0.1250  0.0000 (reduced coord)
  -0.23385   -0.01015    0.07499    0.13154    0.25974    0.29499    0.30177    0.39143
 kpt#  12, nband=  8, wtk=  0.02344, kpt= -0.1250  0.1250  0.0000 (reduced coord)
  -0.25994    0.06125    0.10008    0.14927    0.27155    0.27462    0.28349    0.36377
 kpt#  13, nband=  8, wtk=  0.01172, kpt=  0.2500  0.2500  0.0000 (reduced coord)
  -0.24003    0.03061    0.09047    0.09047    0.20144    0.27515    0.37152    0.37152
 kpt#  14, nband=  8, wtk=  0.04688, kpt=  0.3750  0.2500  0.0000 (reduced coord)
  -0.21394   -0.02174    0.06175    0.07876    0.20958    0.26640    0.38036    0.39037
 kpt#  15, nband=  8, wtk=  0.04688, kpt=  0.5000  0.2500  0.0000 (reduced coord)
  -0.17990   -0.07475    0.03000    0.07887    0.21582    0.32357    0.37103    0.37754
 kpt#  16, nband=  8, wtk=  0.04688, kpt= -0.3750  0.2500  0.0000 (reduced coord)
  -0.17239   -0.08425    0.01313    0.09059    0.22773    0.36096    0.36134    0.41575
 kpt#  17, nband=  8, wtk=  0.02344, kpt= -0.2500  0.2500  0.0000 (reduced coord)
  -0.20468   -0.04157    0.02196    0.11115    0.24994    0.33585    0.34883    0.38571
 kpt#  18, nband=  8, wtk=  0.01172, kpt=  0.3750  0.3750  0.0000 (reduced coord)
  -0.19179   -0.05132    0.06410    0.06410    0.18255    0.21659    0.45544    0.45544
 kpt#  19, nband=  8, wtk=  0.04688, kpt=  0.5000  0.3750  0.0000 (reduced coord)
  -0.15881   -0.09120    0.03362    0.06130    0.19284    0.23231    0.46373    0.46694
 kpt#  20, nband=  8, wtk=  0.02344, kpt= -0.3750  0.3750  0.0000 (reduced coord)
  -0.14268   -0.10578    0.00177    0.07078    0.20421    0.31180    0.43431    0.45467
 kpt#  21, nband=  8, wtk=  0.00586, kpt=  0.5000  0.5000  0.0000 (reduced coord)
  -0.12747   -0.12747    0.05507    0.05507    0.18606    0.18606    0.53105    0.53105
 kpt#  22, nband=  8, wtk=  0.04688, kpt=  0.3750  0.2500  0.1250 (reduced coord)
  -0.23094    0.00221    0.06019    0.10747    0.24989    0.30321    0.31428    0.36218
 kpt#  23, nband=  8, wtk=  0.09375, kpt=  0.5000  0.2500  0.1250 (reduced coord)
  -0.19829   -0.05485    0.03783    0.08902    0.26571    0.29059    0.34445    0.37820
 kpt#  24, nband=  8, wtk=  0.04688, kpt= -0.3750  0.2500  0.1250 (reduced coord)
  -0.17431   -0.08960    0.03310    0.08057    0.27262    0.27517    0.37723    0.42178
 kpt#  25, nband=  8, wtk=  0.04688, kpt=  0.5000  0.3750  0.1250 (reduced coord)
  -0.18449   -0.05936    0.03632    0.05850    0.23153    0.25729    0.37143    0.45359
 kpt#  26, nband=  8, wtk=  0.09375, kpt= -0.3750  0.3750  0.1250 (reduced coord)
  -0.15233   -0.09495    0.01065    0.05111    0.24778    0.31745    0.35385    0.43336
 kpt#  27, nband=  8, wtk=  0.04688, kpt= -0.2500  0.3750  0.1250 (reduced coord)
  -0.16522   -0.08160    0.00451    0.06494    0.26541    0.32706    0.35165    0.41840
 kpt#  28, nband=  8, wtk=  0.02344, kpt= -0.3750  0.5000  0.1250 (reduced coord)
  -0.12460   -0.12460    0.03432    0.03432    0.23242    0.23242    0.44833    0.44833
 kpt#  29, nband=  8, wtk=  0.01172, kpt= -0.2500  0.5000  0.2500 (reduced coord)
  -0.12144   -0.12144    0.01829    0.01829    0.31709    0.31709    0.34370    0.34370
 Total charge density [el/Bohr^3]
)     Maximum=    8.5588E-02  at reduced coord.    0.1000    0.1000    0.2000
)Next maximum=    8.5588E-02  at reduced coord.    0.7000    0.1000    0.1000
)     Minimum=    1.5408E-03  at reduced coord.    0.0000    0.0000    0.0000
)Next minimum=    2.9219E-03  at reduced coord.    0.2667    0.2333    0.2333
   Integrated=    8.0000E+00

 Cartesian components of stress tensor (hartree/bohr^3)
  sigma(1 1)= -6.82137457E-05  sigma(3 2)=  0.00000000E+00
  sigma(2 2)= -6.82137457E-05  sigma(3 1)=  0.00000000E+00
  sigma(3 3)= -6.82137457E-05  sigma(2 1)=  0.00000000E+00

-Cartesian components of stress tensor (GPa)         [Pressure=  2.0069E+00 GPa]
- sigma(1 1)= -2.00691735E+00  sigma(3 2)=  0.00000000E+00
- sigma(2 2)= -2.00691735E+00  sigma(3 1)=  0.00000000E+00
- sigma(3 3)= -2.00691735E+00  sigma(2 1)=  0.00000000E+00
 dataset: 1 , wall:  1.62 [s] , cpu:  1.31 [s] <<< TIME

================================================================================
== DATASET  2 ==================================================================
-   mpi_nproc: 256, omp_nthreads: -1 (-1 if OMP is not activated)


--- !COMMENT
src_file: m_xgScalapack.F90
src_line: 230
message: |
    xgScalapack in auto mode
...

 mkfilename : getden/=0, take file _DEN from output of DATASET   1.


 getdim_nloc: deduce lmnmax  =  18, lnmax  =   6,
                      lmnmaxso=  18, lnmaxso=   6.
 Exchange-correlation functional for the present dataset will be:
  GGA: Perdew-Burke-Ernzerhof functional - ixc=11
 Citation for XC functional:
  J.P.Perdew, K.Burke, M.Ernzerhof, PRL 77, 3865 (1996)

.Using single precision arithmetic; gwpc =  4

- Reading GS density from: outdata_gs_DS1_DEN

 getcut: wavevector=  0.0000  0.0000  0.0000  ngfft=  30  30  30
         ecut(hartree)=     18.000   => boxcut(ratio)=   2.16755

 ==== Coarse FFT mesh for the wavefunctions ====
  FFT mesh divisions ........................    30   30   30
  Augmented FFT divisions ...................    31   31   30
  FFT algorithm .............................   312
  FFT cache size ............................    16

 ==== Dense FFT mesh for densities and potentials ====
  FFT mesh divisions ........................    30   30   30
  Augmented FFT divisions ...................    31   31   30
  FFT algorithm .............................   312
  FFT cache size ............................    16
 About to read data(r) from: outdata_gs_DS1_DEN
 read_rhor , wall:  0.26 [s] , cpu:  0.26 [s] <<< TIME
 Total charge density [el/Bohr^3]
)     Maximum=    8.5588E-02  at reduced coord.    0.1000    0.1000    0.7000
)     Minimum=    1.5408E-03  at reduced coord.    0.0000    0.0000    0.0000
   Integrated=    8.0000E+00
 Comparing input crystal with DEN crystal
 prepare gwr_driver_init , wall:  0.29 [s] , cpu:  0.29 [s] <<< TIME
 Writing wavefunctions to file: outdata_gs_DS2_WFK
 FILE_OPEN , wall:  0.01 [s] , cpu:  0.00 [s] <<< TIME
 write_frmarkers , wall:  0.36 [s] , cpu:  0.27 [s] <<< TIME
 FILE_OPEN , wall:  0.02 [s] , cpu:  0.01 [s] <<< TIME

 Since the number of bands to be computed was -1 or
 too large, it has been set to the maximum value npw_k*nspinor: 941
 Local memory for scalapack matrices: 4.5  [Mb] <<< MEM
 build_hg1g2 , wall:  0.06 [s] , cpu:  0.06 [s] <<< TIME

 Begin full diagonalization for kpt: [ 0.0000E+00,  0.0000E+00,  0.0000E+00]          
 H_GG' Matrix size: 941, Scalapack grid: [3, 3]
 full_diago , wall:  0.29 [s] , cpu:  0.25 [s] <<< TIME
 Moving to PBLAS block column distribution...
 block column distribution , wall:  0.01 [s] , cpu:  0.01 [s] <<< TIME
 wfk_write_band_block , wall:  0.05 [s] , cpu:  0.05 [s] <<< TIME
 Direct diago completed by this MPI pool. Other pools might take more time if k != 0
 ik_ibz: 1, spin: 1, diago_wall:  0.44 [s], io_wall:  0.05 [s], nprocs: 9
 ik_ibz: 2, spin: 1, diago_wall:  0.47 [s], io_wall:  0.03 [s], nprocs: 9
 ik_ibz: 3, spin: 1, diago_wall:  0.47 [s], io_wall:  0.02 [s], nprocs: 9
 ik_ibz: 4, spin: 1, diago_wall:  0.48 [s], io_wall:  0.05 [s], nprocs: 9
 ik_ibz: 5, spin: 1, diago_wall:  0.48 [s], io_wall:  0.02 [s], nprocs: 9
 ik_ibz: 6, spin: 1, diago_wall:  0.46 [s], io_wall:  0.02 [s], nprocs: 9
 ik_ibz: 7, spin: 1, diago_wall:  0.50 [s], io_wall:  0.14 [s], nprocs: 9
 ik_ibz: 8, spin: 1, diago_wall:  0.51 [s], io_wall:  0.14 [s], nprocs: 9
 ik_ibz: 9, spin: 1, diago_wall:  0.51 [s], io_wall:  0.16 [s], nprocs: 9
 ik_ibz: 10, spin: 1, diago_wall:  0.51 [s], io_wall:  0.16 [s], nprocs: 9
 ik_ibz: 11, spin: 1, diago_wall:  0.50 [s], io_wall:  0.16 [s], nprocs: 9
 ik_ibz: 12, spin: 1, diago_wall:  0.49 [s], io_wall:  0.04 [s], nprocs: 9
 ik_ibz: 13, spin: 1, diago_wall:  0.50 [s], io_wall:  0.15 [s], nprocs: 9
 ik_ibz: 14, spin: 1, diago_wall:  0.50 [s], io_wall:  0.15 [s], nprocs: 9
 ik_ibz: 15, spin: 1, diago_wall:  0.51 [s], io_wall:  0.08 [s], nprocs: 9
 ik_ibz: 16, spin: 1, diago_wall:  0.50 [s], io_wall:  0.08 [s], nprocs: 9
 ik_ibz: 17, spin: 1, diago_wall:  0.50 [s], io_wall:  0.08 [s], nprocs: 9
 ik_ibz: 18, spin: 1, diago_wall:  0.51 [s], io_wall:  0.08 [s], nprocs: 9
 ik_ibz: 19, spin: 1, diago_wall:  0.50 [s], io_wall:  0.11 [s], nprocs: 9
 ik_ibz: 20, spin: 1, diago_wall:  0.50 [s], io_wall:  0.11 [s], nprocs: 9
 ik_ibz: 21, spin: 1, diago_wall:  0.48 [s], io_wall:  0.11 [s], nprocs: 9
 ik_ibz: 22, spin: 1, diago_wall:  0.50 [s], io_wall:  0.11 [s], nprocs: 9
 ik_ibz: 23, spin: 1, diago_wall:  0.51 [s], io_wall:  0.11 [s], nprocs: 9
 ik_ibz: 24, spin: 1, diago_wall:  0.51 [s], io_wall:  0.11 [s], nprocs: 9
 ik_ibz: 25, spin: 1, diago_wall:  0.52 [s], io_wall:  0.10 [s], nprocs: 8
 ik_ibz: 26, spin: 1, diago_wall:  0.52 [s], io_wall:  0.10 [s], nprocs: 8
 ik_ibz: 27, spin: 1, diago_wall:  0.52 [s], io_wall:  0.10 [s], nprocs: 8
 ik_ibz: 28, spin: 1, diago_wall:  0.51 [s], io_wall:  0.11 [s], nprocs: 8
 ik_ibz: 29, spin: 1, diago_wall:  0.51 [s], io_wall:  0.11 [s], nprocs: 8
 Top of valence:   4.3556 (eV)
 Bottom of conduction:   4.9673 (eV)
 Fundamental gap:  0.6117 (eV)

 Fermi level: 4.6615  (eV) 


 === KS gaps after direct diagonalization ===
 Indirect band gap semiconductor
 Fundamental gap:     0.612 (eV)
   VBM:     4.356 (eV) at k: [ 0.0000E+00,  0.0000E+00,  0.0000E+00]
   CBM:     4.967 (eV) at k: [ 3.7500E-01,  3.7500E-01,  0.0000E+00]
 Direct gap:         2.556 (eV) at k: [ 0.0000E+00,  0.0000E+00,  0.0000E+00]

 dataset: 2 , wall:  1.37 [s] , cpu:  1.16 [s] <<< TIME

== END DATASET(S) ==============================================================
================================================================================
  
 -outvars: echo values of variables after computation  --------
 
 These variables are accessible in NetCDF format (outdata_gs_OUT.nc)

-          iomode1          1
-          iomode2          0
            acell      1.0260000000E+01  1.0260000000E+01  1.0260000000E+01 Bohr
              amu      2.80855000E+01
        autoparal1          1
        autoparal2          0
           bandpp1          2
           bandpp2          1
     densfor_pred1          6
     densfor_pred2          2
           diemac      1.20000000E+01
             ecut      1.80000000E+01 Hartree
           etotal1    -8.4622476648E+00
           etotal2     0.0000000000E+00
            fcart1    -1.2814504633E-32  3.9724964363E-31 -6.0228171776E-31
                       1.2814504633E-32 -3.9724964363E-31  6.0228171776E-31
            fcart2     0.0000000000E+00  0.0000000000E+00  0.0000000000E+00
                       0.0000000000E+00  0.0000000000E+00  0.0000000000E+00
-          fftalg         312
           getden1          0
           getden2         -1
           istwfk        1    0    0    0    1    0    0    0    0    0
                         0    0    0    0    0    0    0    0    0    0
                         1    0    0    0    0    0    0    0    0
              ixc          11
           jdtset        1    2
              kpt      0.00000000E+00  0.00000000E+00  0.00000000E+00
                       1.25000000E-01  0.00000000E+00  0.00000000E+00
                       2.50000000E-01  0.00000000E+00  0.00000000E+00
                       3.75000000E-01  0.00000000E+00  0.00000000E+00
                       5.00000000E-01  0.00000000E+00  0.00000000E+00
                       1.25000000E-01  1.25000000E-01  0.00000000E+00
                       2.50000000E-01  1.25000000E-01  0.00000000E+00
                       3.75000000E-01  1.25000000E-01  0.00000000E+00
                       5.00000000E-01  1.25000000E-01  0.00000000E+00
                      -3.75000000E-01  1.25000000E-01  0.00000000E+00
                      -2.50000000E-01  1.25000000E-01  0.00000000E+00
                      -1.25000000E-01  1.25000000E-01  0.00000000E+00
                       2.50000000E-01  2.50000000E-01  0.00000000E+00
                       3.75000000E-01  2.50000000E-01  0.00000000E+00
                       5.00000000E-01  2.50000000E-01  0.00000000E+00
                      -3.75000000E-01  2.50000000E-01  0.00000000E+00
                      -2.50000000E-01  2.50000000E-01  0.00000000E+00
                       3.75000000E-01  3.75000000E-01  0.00000000E+00
                       5.00000000E-01  3.75000000E-01  0.00000000E+00
                      -3.75000000E-01  3.75000000E-01  0.00000000E+00
                       5.00000000E-01  5.00000000E-01  0.00000000E+00
                       3.75000000E-01  2.50000000E-01  1.25000000E-01
                       5.00000000E-01  2.50000000E-01  1.25000000E-01
                      -3.75000000E-01  2.50000000E-01  1.25000000E-01
                       5.00000000E-01  3.75000000E-01  1.25000000E-01
                      -3.75000000E-01  3.75000000E-01  1.25000000E-01
                      -2.50000000E-01  3.75000000E-01  1.25000000E-01
                      -3.75000000E-01  5.00000000E-01  1.25000000E-01
                      -2.50000000E-01  5.00000000E-01  2.50000000E-01
         kptrlatt        8    0    0      0    8    0      0    0    8
          kptrlen      5.80393246E+01
P           mkmem           1
            natom           2
            nband1          8
            nband2          5
           ndtset           2
            ngfft          30      30      30
             nkpt          29
-          npband1          4
-          npband2          1
-           npfft1          2
-           npfft2          1
-        np_spkpt1         29
-        np_spkpt2          1
            nstep          50
             nsym          48
           ntypat           1
              occ1     2.000000  2.000000  2.000000  2.000000  0.000000  0.000000
                       0.000000  0.000000
              occ2     2.000000  2.000000  2.000000  2.000000  0.000000
        optdriver1          0
        optdriver2          6
           ortalg1         -2
           ortalg2          2
        paral_kgb1          1
        paral_kgb2          0
            rprim      0.0000000000E+00  5.0000000000E-01  5.0000000000E-01
                       5.0000000000E-01  0.0000000000E+00  5.0000000000E-01
                       5.0000000000E-01  5.0000000000E-01  0.0000000000E+00
          spgroup         227
           strten1    -6.8213745657E-05 -6.8213745657E-05 -6.8213745657E-05
                       0.0000000000E+00  0.0000000000E+00  0.0000000000E+00
           strten2     0.0000000000E+00  0.0000000000E+00  0.0000000000E+00
                       0.0000000000E+00  0.0000000000E+00  0.0000000000E+00
           symrel      1  0  0   0  1  0   0  0  1      -1  0  0   0 -1  0   0  0 -1
                       0 -1  1   0 -1  0   1 -1  0       0  1 -1   0  1  0  -1  1  0
                      -1  0  0  -1  0  1  -1  1  0       1  0  0   1  0 -1   1 -1  0
                       0  1 -1   1  0 -1   0  0 -1       0 -1  1  -1  0  1   0  0  1
                      -1  0  0  -1  1  0  -1  0  1       1  0  0   1 -1  0   1  0 -1
                       0 -1  1   1 -1  0   0 -1  0       0  1 -1  -1  1  0   0  1  0
                       1  0  0   0  0  1   0  1  0      -1  0  0   0  0 -1   0 -1  0
                       0  1 -1   0  0 -1   1  0 -1       0 -1  1   0  0  1  -1  0  1
                      -1  0  1  -1  1  0  -1  0  0       1  0 -1   1 -1  0   1  0  0
                       0 -1  0   1 -1  0   0 -1  1       0  1  0  -1  1  0   0  1 -1
                       1  0 -1   0  0 -1   0  1 -1      -1  0  1   0  0  1   0 -1  1
                       0  1  0   0  0  1   1  0  0       0 -1  0   0  0 -1  -1  0  0
                       1  0 -1   0  1 -1   0  0 -1      -1  0  1   0 -1  1   0  0  1
                       0 -1  0   0 -1  1   1 -1  0       0  1  0   0  1 -1  -1  1  0
                      -1  0  1  -1  0  0  -1  1  0       1  0 -1   1  0  0   1 -1  0
                       0  1  0   1  0  0   0  0  1       0 -1  0  -1  0  0   0  0 -1
                       0  0 -1   0  1 -1   1  0 -1       0  0  1   0 -1  1  -1  0  1
                       1 -1  0   0 -1  1   0 -1  0      -1  1  0   0  1 -1   0  1  0
                       0  0  1   1  0  0   0  1  0       0  0 -1  -1  0  0   0 -1  0
                      -1  1  0  -1  0  0  -1  0  1       1 -1  0   1  0  0   1  0 -1
                       0  0  1   0  1  0   1  0  0       0  0 -1   0 -1  0  -1  0  0
                       1 -1  0   0 -1  0   0 -1  1      -1  1  0   0  1  0   0  1 -1
                       0  0 -1   1  0 -1   0  1 -1       0  0  1  -1  0  1   0 -1  1
                      -1  1  0  -1  0  1  -1  0  0       1 -1  0   1  0 -1   1  0  0
           timopt          -1
            tnons      0.0000000  0.0000000  0.0000000     0.2500000  0.2500000  0.2500000
                       0.0000000  0.0000000  0.0000000     0.2500000  0.2500000  0.2500000
                       0.0000000  0.0000000  0.0000000     0.2500000  0.2500000  0.2500000
                       0.0000000  0.0000000  0.0000000     0.2500000  0.2500000  0.2500000
                       0.0000000  0.0000000  0.0000000     0.2500000  0.2500000  0.2500000
                       0.0000000  0.0000000  0.0000000     0.2500000  0.2500000  0.2500000
                       0.0000000  0.0000000  0.0000000     0.2500000  0.2500000  0.2500000
                       0.0000000  0.0000000  0.0000000     0.2500000  0.2500000  0.2500000
                       0.0000000  0.0000000  0.0000000     0.2500000  0.2500000  0.2500000
                       0.0000000  0.0000000  0.0000000     0.2500000  0.2500000  0.2500000
                       0.0000000  0.0000000  0.0000000     0.2500000  0.2500000  0.2500000
                       0.0000000  0.0000000  0.0000000     0.2500000  0.2500000  0.2500000
                       0.0000000  0.0000000  0.0000000     0.2500000  0.2500000  0.2500000
                       0.0000000  0.0000000  0.0000000     0.2500000  0.2500000  0.2500000
                       0.0000000  0.0000000  0.0000000     0.2500000  0.2500000  0.2500000
                       0.0000000  0.0000000  0.0000000     0.2500000  0.2500000  0.2500000
                       0.0000000  0.0000000  0.0000000     0.2500000  0.2500000  0.2500000
                       0.0000000  0.0000000  0.0000000     0.2500000  0.2500000  0.2500000
                       0.0000000  0.0000000  0.0000000     0.2500000  0.2500000  0.2500000
                       0.0000000  0.0000000  0.0000000     0.2500000  0.2500000  0.2500000
                       0.0000000  0.0000000  0.0000000     0.2500000  0.2500000  0.2500000
                       0.0000000  0.0000000  0.0000000     0.2500000  0.2500000  0.2500000
                       0.0000000  0.0000000  0.0000000     0.2500000  0.2500000  0.2500000
                       0.0000000  0.0000000  0.0000000     0.2500000  0.2500000  0.2500000
           tolvrs1     1.00000000E-08
           tolvrs2     0.00000000E+00
            typat      1  1
         wfoptalg1        114
         wfoptalg2          0
              wtk        0.00195    0.01563    0.01563    0.01563    0.00781    0.01172
                         0.04688    0.04688    0.04688    0.04688    0.04688    0.02344
                         0.01172    0.04688    0.04688    0.04688    0.02344    0.01172
                         0.04688    0.02344    0.00586    0.04688    0.09375    0.04688
                         0.04688    0.09375    0.04688    0.02344    0.01172
           xangst      0.0000000000E+00  0.0000000000E+00  0.0000000000E+00
                       1.3573395400E+00  1.3573395400E+00  1.3573395400E+00
            xcart      0.0000000000E+00  0.0000000000E+00  0.0000000000E+00
                       2.5650000000E+00  2.5650000000E+00  2.5650000000E+00
             xred      0.0000000000E+00  0.0000000000E+00  0.0000000000E+00
                       2.5000000000E-01  2.5000000000E-01  2.5000000000E-01
            znucl       14.00000

================================================================================
  
 Proc.   0 individual time (sec): cpu=          3.1  wall=          3.7

 Calculation completed.
.Delivered   0 WARNINGs and   0 COMMENTs to log file.

--- !FinalSummary
program: abinit
version: 9.9.2
start_datetime: Sat Feb 11 20:52:57 2023
end_datetime: Sat Feb 11 20:53:01 2023
overall_cpu_time:         842.1
overall_wall_time:         952.0
exit_requested_by_user: no 
timelimit: 0
pseudos: 
    Si  : 45c393525680abc7b25445b8ec62bf83
usepaw: 0
mpi_procs: 256
omp_threads: 1
num_warnings: 0
num_comments: 0
...
