  ABINIT 9.9.2
  
-instrng: 32 lines of input have been read from file ../globals

-instrng: 44 lines of input have been read from file run.abi


--- !COMMENT
src_file: m_dtfil.F90
src_line: 1441
message: |
    Output file: run.abo already exists.
...


--- !COMMENT
src_file: m_dtfil.F90
src_line: 1465
message: |
    Renaming old: run.abo to: run.abo0002
...


.Version 9.9.2 of ABINIT 
.(MPI version, prepared for a x86_64_linux_gnu11.2 computer) 

.Copyright (C) 1998-2022 ABINIT group . 
 ABINIT comes with ABSOLUTELY NO WARRANTY.
 It is free software, and you are welcome to redistribute it
 under certain conditions (GNU General Public License,
 see ~abinit/COPYING or http://www.gnu.org/copyleft/gpl.txt).

 ABINIT is a project of the Universite Catholique de Louvain,
 Corning Inc. and other collaborators, see ~abinit/doc/developers/contributors.txt .
 Please read https://docs.abinit.org/theory/acknowledgments for suggested
 acknowledgments of the ABINIT effort.
 For more information, see https://www.abinit.org .

.Starting date : Fri 17 Feb 2023.
- ( at 02h30 )
  

 ++++++++++++++++++++++++++++++++++++++++++++++++++++++++++++++++++++++++++++++

 === Build Information === 
  Version       : 9.9.2
  Build target  : x86_64_linux_gnu11.2
  Build date    : 20230216

 === Compiler Suite === 
  C compiler       : gnu11.2
  C++ compiler     : gnu11.2
  Fortran compiler : gnu11.2
  CFLAGS           : -g -O2
  CXXFLAGS         : -g -O2 -mtune=native -march=native
  FCFLAGS          : -g -O2 -fbacktrace -ffree-line-length-none -fallow-argument-mismatc ...
  FC_LDFLAGS       : 

 === Optimizations === 
  Debug level        : basic
  Optimization level : standard
  Architecture       : amd_epyc

 === Multicore === 
  Parallel build : /opt/cray/pe/mpich/8.1.12/ofi/gnu/9.1
  Parallel I/O   : 
  openMP support : no
  GPU support    : 

 === Connectors / Fallbacks === 
  LINALG flavor  : netlib
  FFT flavor     : fftw3
  HDF5           : yes
  NetCDF         : yes
  NetCDF Fortran : yes
  LibXC          : yes
  Wannier90      : no

 === Experimental features === 
  Exports             : 
  GW double-precision : no

 ++++++++++++++++++++++++++++++++++++++++++++++++++++++++++++++++++++++++++++++


 ++++++++++++++++++++++++++++++++++++++++++++++++++++++++++++++++++++++++++++++
 Default optimizations:
   --- None ---


 ++++++++++++++++++++++++++++++++++++++++++++++++++++++++++++++++++++++++++++++


 ++++++++++++++++++++++++++++++++++++++++++++++++++++++++++++++++++++++++++++++
 CPP options activated during the build:

                    CC_GNU                   CXX_GNU                    FC_GNU
 
 HAVE_FC_ALLOCATABLE_DT...             HAVE_FC_ASYNC         HAVE_FC_BACKTRACE
 
  HAVE_FC_COMMAND_ARGUMENT      HAVE_FC_COMMAND_LINE        HAVE_FC_CONTIGUOUS
 
           HAVE_FC_CPUTIME              HAVE_FC_EXIT             HAVE_FC_FLUSH
 
             HAVE_FC_GAMMA            HAVE_FC_GETENV   HAVE_FC_IEEE_ARITHMETIC
 
   HAVE_FC_IEEE_EXCEPTIONS          HAVE_FC_INT_QUAD             HAVE_FC_IOMSG
 
     HAVE_FC_ISO_C_BINDING  HAVE_FC_ISO_FORTRAN_2008        HAVE_FC_LONG_LINES
 
        HAVE_FC_MOVE_ALLOC  HAVE_FC_ON_THE_FLY_SHAPE           HAVE_FC_PRIVATE
 
         HAVE_FC_PROTECTED           HAVE_FC_SHIFTLR         HAVE_FC_STREAM_IO
 
            HAVE_FC_SYSTEM                HAVE_FFTW3            HAVE_FFTW3_MPI
 
          HAVE_FORTRAN2003                 HAVE_HDF5        HAVE_LIBPAW_ABINIT
 
      HAVE_LIBTETRA_ABINIT                HAVE_LIBXC        HAVE_LINALG_GEMM3M
 
     HAVE_LINALG_SCALAPACK                  HAVE_MPI                 HAVE_MPI2
 
       HAVE_MPI_IALLGATHER       HAVE_MPI_IALLREDUCE        HAVE_MPI_IALLTOALL
 
       HAVE_MPI_IALLTOALLV           HAVE_MPI_IBCAST         HAVE_MPI_IGATHERV
 
        HAVE_MPI_INTEGER16               HAVE_MPI_IO HAVE_MPI_TYPE_CREATE_S...
 
               HAVE_NETCDF       HAVE_NETCDF_FORTRAN             HAVE_OS_LINUX
 
         HAVE_TIMER_ABINIT                                                      
 ++++++++++++++++++++++++++++++++++++++++++++++++++++++++++++++++++++++++++++++

- input  file    -> run.abi
- output file    -> run.abo
- root for input  files -> ../indata_ac
- root for output files -> outdata_ac

-instrng: 32 lines of input have been read from file ../globals

-instrng: 44 lines of input have been read from file run.abi

 For atom type 1, psp file is ../B.psp8
 For atom type 2, psp file is ../N.psp8
  read the values zionpsp=  3.0 , pspcod=   8 , lmax=   1
  read the values zionpsp=  5.0 , pspcod=   8 , lmax=   1

 inpspheads: deduce mpsang = 2, n1xccc = 2501.

======================================================= 
 invars1m : enter jdtset= 1

 symlatt: the Bravais lattice is cF (face-centered cubic)
  xred   is defined in input file
 ingeo: takes atomic coordinates from input array xred

--- !COMMENT
src_file: m_ingeo.F90
src_line: 890
message: |
    The tolerance on symmetries =   1.000E-05 is bigger than 1.0e-8.
    In order to avoid spurious effects, the atomic coordinates have been
    symmetrized before storing them in the dataset internal variable.
    So, do not be surprised by the fact that your input variables (xcart, xred, ...)
    do not correspond exactly to the ones echoed by ABINIT, the latter being used to do the calculations.
    This is not a problem per se.
    Still, in order to avoid this symmetrization (e.g. for specific debugging/development), decrease tolsym to 1.0e-8 or lower,
    or (much preferred) use input primitive vectors that are accurate to better than 1.0e-8.
    This message will only be printed once, even if there are other datasets where tolsym is bigger than 1.0e-8.
...


 symlatt: the Bravais lattice is cF (face-centered cubic)

 symlatt: the Bravais lattice is cF (face-centered cubic)
 symspgr: spgroup= 216  F-4 3 m   (=Td^2)
 symspgr: optical characteristics = isotropic

======================================================= 
 invars1m : enter jdtset= 2

 symlatt: the Bravais lattice is cF (face-centered cubic)
  xred   is defined in input file
 ingeo: takes atomic coordinates from input array xred

 symlatt: the Bravais lattice is cF (face-centered cubic)

 symlatt: the Bravais lattice is cF (face-centered cubic)
 symspgr: spgroup= 216  F-4 3 m   (=Td^2)
 symspgr: optical characteristics = isotropic

--- !WARNING
src_file: m_mpinfo.F90
src_line: 2337
message: |
    nproc_spkpt= 256 >= nkpt= 29* nsppol= 1
    The number of processors is larger than nkpt*nsppol. This is a WASTE.
     Ignore this warning if this is not a GS run
...

 For input ecut=  4.500000E+01 best grid ngfft=      30      30      30
       max ecut=  4.769051E+01

 ==== FFT mesh ====
  FFT mesh divisions ........................    30   30   30
  Augmented FFT divisions ...................    31   31   30
  FFT algorithm .............................   312
  FFT cache size ............................    16
 getmpw: optimal value of mpw= 1174

--- !WARNING
src_file: m_mpinfo.F90
src_line: 2337
message: |
    nproc_spkpt= 256 >= nkpt= 29* nsppol= 1
    The number of processors is larger than nkpt*nsppol. This is a WASTE.
     Ignore this warning if this is not a GS run
...

 For input ecut=  4.500000E+01 best grid ngfft=      30      30      30
       max ecut=  4.769051E+01

 ==== FFT mesh ====
  FFT mesh divisions ........................    30   30   30
  Augmented FFT divisions ...................    31   31   30
  FFT algorithm .............................   312
  FFT cache size ............................    16
 getmpw: optimal value of mpw= 1174

 DATASET    1 : space group F-4 3 m (#216); Bravais cF (face-center cubic)

 getdim_nloc: deduce lmnmax  =   8, lnmax  =   4,
                      lmnmaxso=   8, lnmaxso=   4.
memory: analysis of memory needs
================================================================================
 Values of the parameters that define the memory need for DATASET  1.
     intxc =       0    ionmov =       0      iscf =       7    lmnmax =       4
     lnmax =       4     mgfft =      30  mpssoang =       2    mqgrid =    3001
     natom =       2  nloc_mem =       1    nspden =       1   nspinor =       1
    nsppol =       1      nsym =      24    n1xccc =    2501    ntypat =       2
    occopt =       1   xclevel =       2
-    mband =         480        mffmem =           1         mkmem =           1
       mpw =        1174          nfft =       27000          nkpt =          29
================================================================================
P This job should need less than                      25.614 Mbytes of memory.
  Rough estimation (10% accuracy) of disk space for files :
_ WF disk file :    249.362 Mbytes ; DEN or POT disk file :      0.208 Mbytes.
================================================================================

 Biggest array : cg(disk), with      8.6006 MBytes.

 DATASET    2 : space group F-4 3 m (#216); Bravais cF (face-center cubic)

 getdim_nloc: deduce lmnmax  =   8, lnmax  =   4,
                      lmnmaxso=   8, lnmaxso=   4.
memory: analysis of memory needs
================================================================================
 Values of the parameters that define the memory need for DATASET  2.
     intxc =       0    ionmov =       0      iscf =       7    lmnmax =       4
     lnmax =       4     mgfft =      30  mpssoang =       2    mqgrid =    3001
     natom =       2  nloc_mem =       1    nspden =       1   nspinor =       1
    nsppol =       1      nsym =      24    n1xccc =    2501    ntypat =       2
    occopt =       1   xclevel =       2
-    mband =         480        mffmem =           1         mkmem =           1
       mpw =        1174          nfft =       27000          nkpt =          29
================================================================================
P This job should need less than                      25.614 Mbytes of memory.
  Rough estimation (10% accuracy) of disk space for files :
_ WF disk file :    249.362 Mbytes ; DEN or POT disk file :      0.208 Mbytes.
================================================================================

 Biggest array : cg(disk), with      8.6006 MBytes.
--------------------------------------------------------------------------------
------------- Echo of variables that govern the present computation ------------
--------------------------------------------------------------------------------
-
- outvars: echo of selected default values                                      
-   iomode0 =  0 , fftalg0 =312 , wfoptalg0 =  0
-
- outvars: echo of global parameters not present in the input file              
-  max_nthreads =    0
-
 -outvars: echo values of preprocessed input variables --------
 
 These variables are accessible in NetCDF format (outdata_ac_OUT.nc)

            acell      6.8313599704E+00  6.8313599704E+00  6.8313599704E+00 Bohr
              amu      1.08110000E+01  1.40067400E+01
             bdgw           1       8       1       8
           diemac      1.20000000E+01
             ecut      4.50000000E+01 Hartree
          ecuteps      1.20000000E+01 Hartree
         ecutsigx      4.50000000E+01 Hartree
          ecutwfn      4.50000000E+01 Hartree
-          fftalg         312
           getscr1          0
           getscr2         -1
           istwfk        1    0    0    0    1    0    0    0    0    0
                         0    0    0    0    0    0    0    0    0    0
                         1    0    0    0    0    0    0    0    0
              ixc          11
           jdtset        1    2
              kpt      0.00000000E+00  0.00000000E+00  0.00000000E+00
                       1.25000000E-01  0.00000000E+00  0.00000000E+00
                       2.50000000E-01  0.00000000E+00  0.00000000E+00
                       3.75000000E-01  0.00000000E+00  0.00000000E+00
                       5.00000000E-01  0.00000000E+00  0.00000000E+00
                       1.25000000E-01  1.25000000E-01  0.00000000E+00
                       2.50000000E-01  1.25000000E-01  0.00000000E+00
                       3.75000000E-01  1.25000000E-01  0.00000000E+00
                       5.00000000E-01  1.25000000E-01  0.00000000E+00
                      -3.75000000E-01  1.25000000E-01  0.00000000E+00
                      -2.50000000E-01  1.25000000E-01  0.00000000E+00
                      -1.25000000E-01  1.25000000E-01  0.00000000E+00
                       2.50000000E-01  2.50000000E-01  0.00000000E+00
                       3.75000000E-01  2.50000000E-01  0.00000000E+00
                       5.00000000E-01  2.50000000E-01  0.00000000E+00
                      -3.75000000E-01  2.50000000E-01  0.00000000E+00
                      -2.50000000E-01  2.50000000E-01  0.00000000E+00
                       3.75000000E-01  3.75000000E-01  0.00000000E+00
                       5.00000000E-01  3.75000000E-01  0.00000000E+00
                      -3.75000000E-01  3.75000000E-01  0.00000000E+00
                       5.00000000E-01  5.00000000E-01  0.00000000E+00
                       3.75000000E-01  2.50000000E-01  1.25000000E-01
                       5.00000000E-01  2.50000000E-01  1.25000000E-01
                      -3.75000000E-01  2.50000000E-01  1.25000000E-01
                       5.00000000E-01  3.75000000E-01  1.25000000E-01
                      -3.75000000E-01  3.75000000E-01  1.25000000E-01
                      -2.50000000E-01  3.75000000E-01  1.25000000E-01
                      -3.75000000E-01  5.00000000E-01  1.25000000E-01
                      -2.50000000E-01  5.00000000E-01  2.50000000E-01
            kptgw      0.00000000E+00  0.00000000E+00  0.00000000E+00
                       5.00000000E-01  5.00000000E-01  0.00000000E+00
         kptrlatt        8    0    0      0    8    0      0    0    8
          kptrlen      3.86440077E+01
P           mkmem           1
            natom           2
            nband         480
           ndtset           2
            ngfft          30      30      30
             nkpt          29
           nkptgw           2
           npweps         169
          npwsigx        1139
           npwwfn        1139
            nstep          50
             nsym          24
           ntypat           2
              occ      2.000000  2.000000  2.000000  2.000000  0.000000  0.000000
                       0.000000  0.000000  0.000000  0.000000  0.000000  0.000000
                       0.000000  0.000000  0.000000  0.000000  0.000000  0.000000
                       0.000000  0.000000  0.000000  0.000000  0.000000  0.000000
                       0.000000  0.000000  0.000000  0.000000  0.000000  0.000000
                       0.000000  0.000000  0.000000  0.000000  0.000000  0.000000
                       0.000000  0.000000  0.000000  0.000000  0.000000  0.000000
                       0.000000  0.000000  0.000000  0.000000  0.000000  0.000000
                       0.000000  0.000000  0.000000  0.000000  0.000000  0.000000
                       0.000000  0.000000  0.000000  0.000000  0.000000  0.000000
                       0.000000  0.000000  0.000000  0.000000  0.000000  0.000000
                       0.000000  0.000000  0.000000  0.000000  0.000000  0.000000
                       0.000000  0.000000  0.000000  0.000000  0.000000  0.000000
                       0.000000  0.000000  0.000000  0.000000  0.000000  0.000000
                       0.000000  0.000000  0.000000  0.000000  0.000000  0.000000
                       0.000000  0.000000  0.000000  0.000000  0.000000  0.000000
                       0.000000  0.000000  0.000000  0.000000  0.000000  0.000000
                       0.000000  0.000000  0.000000  0.000000  0.000000  0.000000
                       0.000000  0.000000  0.000000  0.000000  0.000000  0.000000
                       0.000000  0.000000  0.000000  0.000000  0.000000  0.000000
                       0.000000  0.000000  0.000000  0.000000  0.000000  0.000000
                       0.000000  0.000000  0.000000  0.000000  0.000000  0.000000
                       0.000000  0.000000  0.000000  0.000000  0.000000  0.000000
                       0.000000  0.000000  0.000000  0.000000  0.000000  0.000000
                       0.000000  0.000000  0.000000  0.000000  0.000000  0.000000
                       0.000000  0.000000  0.000000  0.000000  0.000000  0.000000
                       0.000000  0.000000  0.000000  0.000000  0.000000  0.000000
                       0.000000  0.000000  0.000000  0.000000  0.000000  0.000000
                       0.000000  0.000000  0.000000  0.000000  0.000000  0.000000
                       0.000000  0.000000  0.000000  0.000000  0.000000  0.000000
                       0.000000  0.000000  0.000000  0.000000  0.000000  0.000000
                       0.000000  0.000000  0.000000  0.000000  0.000000  0.000000
                       0.000000  0.000000  0.000000  0.000000  0.000000  0.000000
                       0.000000  0.000000  0.000000  0.000000  0.000000  0.000000
                       0.000000  0.000000  0.000000  0.000000  0.000000  0.000000
                       0.000000  0.000000  0.000000  0.000000  0.000000  0.000000
                       0.000000  0.000000  0.000000  0.000000  0.000000  0.000000
                       0.000000  0.000000  0.000000  0.000000  0.000000  0.000000
                       0.000000  0.000000  0.000000  0.000000  0.000000  0.000000
                       0.000000  0.000000  0.000000  0.000000  0.000000  0.000000
                       0.000000  0.000000  0.000000  0.000000  0.000000  0.000000
                       0.000000  0.000000  0.000000  0.000000  0.000000  0.000000
                       0.000000  0.000000  0.000000  0.000000  0.000000  0.000000
                       0.000000  0.000000  0.000000  0.000000  0.000000  0.000000
                       0.000000  0.000000  0.000000  0.000000  0.000000  0.000000
                       0.000000  0.000000  0.000000  0.000000  0.000000  0.000000
                       0.000000  0.000000  0.000000  0.000000  0.000000  0.000000
                       0.000000  0.000000  0.000000  0.000000  0.000000  0.000000
                       0.000000  0.000000  0.000000  0.000000  0.000000  0.000000
                       0.000000  0.000000  0.000000  0.000000  0.000000  0.000000
                       0.000000  0.000000  0.000000  0.000000  0.000000  0.000000
                       0.000000  0.000000  0.000000  0.000000  0.000000  0.000000
                       0.000000  0.000000  0.000000  0.000000  0.000000  0.000000
                       0.000000  0.000000  0.000000  0.000000  0.000000  0.000000
                       0.000000  0.000000  0.000000  0.000000  0.000000  0.000000
                       0.000000  0.000000  0.000000  0.000000  0.000000  0.000000
                       0.000000  0.000000  0.000000  0.000000  0.000000  0.000000
                       0.000000  0.000000  0.000000  0.000000  0.000000  0.000000
                       0.000000  0.000000  0.000000  0.000000  0.000000  0.000000
                       0.000000  0.000000  0.000000  0.000000  0.000000  0.000000
                       0.000000  0.000000  0.000000  0.000000  0.000000  0.000000
                       0.000000  0.000000  0.000000  0.000000  0.000000  0.000000
                       0.000000  0.000000  0.000000  0.000000  0.000000  0.000000
                       0.000000  0.000000  0.000000  0.000000  0.000000  0.000000
                       0.000000  0.000000  0.000000  0.000000  0.000000  0.000000
                       0.000000  0.000000  0.000000  0.000000  0.000000  0.000000
                       0.000000  0.000000  0.000000  0.000000  0.000000  0.000000
                       0.000000  0.000000  0.000000  0.000000  0.000000  0.000000
                       0.000000  0.000000  0.000000  0.000000  0.000000  0.000000
                       0.000000  0.000000  0.000000  0.000000  0.000000  0.000000
                       0.000000  0.000000  0.000000  0.000000  0.000000  0.000000
                       0.000000  0.000000  0.000000  0.000000  0.000000  0.000000
                       0.000000  0.000000  0.000000  0.000000  0.000000  0.000000
                       0.000000  0.000000  0.000000  0.000000  0.000000  0.000000
                       0.000000  0.000000  0.000000  0.000000  0.000000  0.000000
                       0.000000  0.000000  0.000000  0.000000  0.000000  0.000000
                       0.000000  0.000000  0.000000  0.000000  0.000000  0.000000
                       0.000000  0.000000  0.000000  0.000000  0.000000  0.000000
                       0.000000  0.000000  0.000000  0.000000  0.000000  0.000000
                       0.000000  0.000000  0.000000  0.000000  0.000000  0.000000
        optdriver1          3
        optdriver2          4
            rprim      0.0000000000E+00  5.0000000000E-01  5.0000000000E-01
                       5.0000000000E-01  0.0000000000E+00  5.0000000000E-01
                       5.0000000000E-01  5.0000000000E-01  0.0000000000E+00
          spgroup         216
           symrel      1  0  0   0  1  0   0  0  1       0 -1  1   0 -1  0   1 -1  0
                      -1  0  0  -1  0  1  -1  1  0       0  1 -1   1  0 -1   0  0 -1
                      -1  0  0  -1  1  0  -1  0  1       0 -1  1   1 -1  0   0 -1  0
                       1  0  0   0  0  1   0  1  0       0  1 -1   0  0 -1   1  0 -1
                      -1  0  1  -1  1  0  -1  0  0       0 -1  0   1 -1  0   0 -1  1
                       1  0 -1   0  0 -1   0  1 -1       0  1  0   0  0  1   1  0  0
                       1  0 -1   0  1 -1   0  0 -1       0 -1  0   0 -1  1   1 -1  0
                      -1  0  1  -1  0  0  -1  1  0       0  1  0   1  0  0   0  0  1
                       0  0 -1   0  1 -1   1  0 -1       1 -1  0   0 -1  1   0 -1  0
                       0  0  1   1  0  0   0  1  0      -1  1  0  -1  0  0  -1  0  1
                       0  0  1   0  1  0   1  0  0       1 -1  0   0 -1  0   0 -1  1
                       0  0 -1   1  0 -1   0  1 -1      -1  1  0  -1  0  1  -1  0  0
           timopt          -1
            typat      1  2
              wtk        0.00195    0.01563    0.01563    0.01563    0.00781    0.01172
                         0.04688    0.04688    0.04688    0.04688    0.04688    0.02344
                         0.01172    0.04688    0.04688    0.04688    0.02344    0.01172
                         0.04688    0.02344    0.00586    0.04688    0.09375    0.04688
                         0.04688    0.09375    0.04688    0.02344    0.01172
           xangst      0.0000000000E+00  0.0000000000E+00  0.0000000000E+00
                       9.0375000000E-01  9.0375000000E-01  9.0375000000E-01
            xcart      0.0000000000E+00  0.0000000000E+00  0.0000000000E+00
                       1.7078399926E+00  1.7078399926E+00  1.7078399926E+00
             xred      0.0000000000E+00  0.0000000000E+00  0.0000000000E+00
                       2.5000000000E-01  2.5000000000E-01  2.5000000000E-01
            znucl        5.00000    7.00000

================================================================================

 chkinp: Checking input parameters for consistency, jdtset=   1.

 chkinp: Checking input parameters for consistency, jdtset=   2.
 DATA TYPE INFORMATION: 
 REAL:      Data type name: REAL(DP) 
            Kind value:      8
            Precision:      15
            Smallest nonnegligible quantity relative to 1: 0.22204460E-015
            Smallest positive number:                      0.22250739E-307
            Largest representable number:                  0.17976931E+309
 INTEGER:   Data type name: INTEGER(default) 
            Kind value: 4
            Bit size:   32
            Largest representable number: 2147483647
 LOGICAL:   Data type name: LOGICAL 
            Kind value: 4
 CHARACTER: Data type name: CHARACTER             Kind value: 1

  ==== OpenMP parallelism is OFF ====
 
  ==== Using MPI-2 specifications ==== 
  MPI-IO support is ON
  xmpi_tag_ub ................     33554431
  xmpi_bsize_ch ..............            1
  xmpi_bsize_int .............            4
  xmpi_bsize_sp ..............            4
  xmpi_bsize_dp ..............            8
  xmpi_bsize_spc .............            8
  xmpi_bsize_dpc .............           16
  xmpio_bsize_frm ............            4
  xmpi_address_kind ..........            8
  xmpi_offset_kind ...........            8
  MPI_WTICK ..................    2.0000000000000000E-008

================================================================================
== DATASET  1 ==================================================================
-   mpi_nproc: 256, omp_nthreads: -1 (-1 if OMP is not activated)


--- !COMMENT
src_file: m_xgScalapack.F90
src_line: 230
message: |
    xgScalapack in auto mode
...

 mkfilename: getwfk from: ../outdata_gs_DS2_WFK


 getdim_nloc: deduce lmnmax  =   8, lnmax  =   4,
                      lmnmaxso=   8, lnmaxso=   4.
 Exchange-correlation functional for the present dataset will be:
  GGA: Perdew-Burke-Ernzerhof functional - ixc=11
 Citation for XC functional:
  J.P.Perdew, K.Burke, M.Ernzerhof, PRL 77, 3865 (1996)

 SCREENING: Calculation of the susceptibility and dielectric matrices 

 Based on a program developped by R.W. Godby, V. Olevano, G. Onida, and L. Reining.
 Incorporated in ABINIT by V. Olevano, G.-M. Rignanese, and M. Torrent.
.Using single precision arithmetic ; gwpc =  4

 Unit cell volume ucvol=  7.9700587E+01 bohr^3
 Angles (23,13,12)=  6.00000000E+01  6.00000000E+01  6.00000000E+01 degrees

 getcut: wavevector=  0.0000  0.0000  0.0000  ngfft=  30  30  30
         ecut(hartree)=     45.000   => boxcut(ratio)=   2.05892

 ==== Dense FFT mesh used for densities and potentials ====
  FFT mesh divisions ........................    30   30   30
  Augmented FFT divisions ...................    31   31   30
  FFT algorithm .............................   312
  FFT cache size ............................    16
- pspini: atom type   1  psp file is ../B.psp8
- pspatm: opening atomic psp file    ../B.psp8
- B     ONCVPSP-3.2.3.1  r_core=   1.20849   1.20849
-  5.00000   3.00000    170503                znucl, zion, pspdat
    8   11    1    4       600   0.00000      pspcod,pspxc,lmax,lloc,mmax,r2well
    5.99000000000000    2.90000000000000    0.00000000000000   rchrg,fchrg,qchrg
     nproj     2     2
     extension_switch     1
  valence charge (before rescaling) integrates to:    2.9827082303705561     
  pspatm : epsatm=    3.38844677
         --- l  ekb(1:nproj) -->
             0    8.382104    1.234201
             1   -3.719492   -0.867526
 pspatm: atomic psp has been read  and splines computed

- pspini: atom type   2  psp file is ../N.psp8
- pspatm: opening atomic psp file    ../N.psp8
- N     ONCVPSP-3.2.3.1  r_core=   1.20551   1.35824
-  7.00000   5.00000    170503                znucl, zion, pspdat
    8   11    1    4       600   0.00000      pspcod,pspxc,lmax,lloc,mmax,r2well
    5.99000000000000    4.00000000000000    0.00000000000000   rchrg,fchrg,qchrg
     nproj     2     2
     extension_switch     1
  valence charge (before rescaling) integrates to:    4.9973675462084248     
  pspatm : epsatm=    5.20978323
         --- l  ekb(1:nproj) -->
             0    7.494509    0.636305
             1   -4.293905   -1.006988
 pspatm: atomic psp has been read  and splines computed

   6.87858400E+01                                ecore*ucvol(ha*bohr**3)
 ==== Info on pseudopotentials ====
  Norm-conserving pseudopotentials
  Number of pseudopotentials ..    2
  Number of types of atoms   ..    2
  Scalar calculation (no spin-orbit term)
  Nonlocal part applied using Legendre polynomials
  Max number of non-local projectors over l and type   2
  Highest angular momentum +1 .......   2
  Max number of (l,n)   components ..   4
  Max number of (l,m,n) components ..   4

 Pseudo-Core Charge Info: 
   Number of radial points for pseudo-core charge .. 2501
   XC core-correction treatment (optnlxccc) ........    1
   Radius for pseudo-core charge for each type ..... 

  - Atom type    1 has pseudo-core radius ..  5.9900
  - Atom type    2 has pseudo-core radius ..  5.9900

 Info on the Q-grid used for form factors in spline form: 
   Number of q-points for radial functions ffspl ..   3001
   Number of q-points for vlspl ...................   3001
   vloc is computed in Reciprocal Space
   model core charge treated in real-space

  XC functional for type 1 is 11
  Pseudo valence available: yes
  XC functional for type 2 is 11
  Pseudo valence available: yes


 GW calculation type              =    0
 zcut to avoid poles in chi0 [eV] =   0.100000

 Reading eigenvalues from: ../outdata_gs_DS2_WFK , with iomode: IO_MODE_FORTRAN
 wfk_read_eigenvalues_io , wall:  0.61 [s] , cpu:  0.24 [s] <<< TIME
 wfk_read_eigenvalues , wall:  0.62 [s] , cpu:  0.25 [s] <<< TIME

 Sorting g-vecs for an output of states on an unique "big" PW basis.
 Since the number of g's to be written on file
 was 0 or too large, it has been set to the max. value.,
 computed from the union of the sets of G vectors for the different k-points.
 Number of G-vectors is:  1591

  ==== Info on the Cryst% object ====
 Real(R)+Recip(G) space primitive vectors, cartesian coordinates (Bohr,Bohr^-1):
 R(1)=  0.0000000  3.4156800  3.4156800  G(1)= -0.1463837  0.1463837  0.1463837
 R(2)=  3.4156800  0.0000000  3.4156800  G(2)=  0.1463837 -0.1463837  0.1463837
 R(3)=  3.4156800  3.4156800  0.0000000  G(3)=  0.1463837  0.1463837 -0.1463837
 Unit cell volume ucvol=  7.9700587E+01 bohr^3
 Angles (23,13,12)=  6.00000000E+01  6.00000000E+01  6.00000000E+01 degrees
 Time-reversal symmetry is present
 Reduced atomic positions [iatom, xred, symbol]:
    1)    0.0000000  0.0000000  0.0000000   B
    2)    0.2500000  0.2500000  0.2500000   N
 ==== K-mesh for the wavefunctions ====
 Number of points in the irreducible wedge :    29
 Reduced coordinates and weights : 

     1)     0.00000000E+00  0.00000000E+00  0.00000000E+00       0.00195
     2)     1.25000000E-01  0.00000000E+00  0.00000000E+00       0.01563
     3)     2.50000000E-01  0.00000000E+00  0.00000000E+00       0.01563
     4)     3.75000000E-01  0.00000000E+00  0.00000000E+00       0.01563
     5)     5.00000000E-01  0.00000000E+00  0.00000000E+00       0.00781
     6)     1.25000000E-01  1.25000000E-01  0.00000000E+00       0.01172
     7)     2.50000000E-01  1.25000000E-01  0.00000000E+00       0.04688
     8)     3.75000000E-01  1.25000000E-01  0.00000000E+00       0.04688
     9)     5.00000000E-01  1.25000000E-01  0.00000000E+00       0.04688
    10)    -3.75000000E-01  1.25000000E-01  0.00000000E+00       0.04688
    11)    -2.50000000E-01  1.25000000E-01  0.00000000E+00       0.04688
    12)    -1.25000000E-01  1.25000000E-01  0.00000000E+00       0.02344
    13)     2.50000000E-01  2.50000000E-01  0.00000000E+00       0.01172
    14)     3.75000000E-01  2.50000000E-01  0.00000000E+00       0.04688
    15)     5.00000000E-01  2.50000000E-01  0.00000000E+00       0.04688
    16)    -3.75000000E-01  2.50000000E-01  0.00000000E+00       0.04688
    17)    -2.50000000E-01  2.50000000E-01  0.00000000E+00       0.02344
    18)     3.75000000E-01  3.75000000E-01  0.00000000E+00       0.01172
    19)     5.00000000E-01  3.75000000E-01  0.00000000E+00       0.04688
    20)    -3.75000000E-01  3.75000000E-01  0.00000000E+00       0.02344
    21)     5.00000000E-01  5.00000000E-01  0.00000000E+00       0.00586
    22)     3.75000000E-01  2.50000000E-01  1.25000000E-01       0.04688
    23)     5.00000000E-01  2.50000000E-01  1.25000000E-01       0.09375
    24)    -3.75000000E-01  2.50000000E-01  1.25000000E-01       0.04688
    25)     5.00000000E-01  3.75000000E-01  1.25000000E-01       0.04688
    26)    -3.75000000E-01  3.75000000E-01  1.25000000E-01       0.09375
    27)    -2.50000000E-01  3.75000000E-01  1.25000000E-01       0.04688
    28)    -3.75000000E-01  5.00000000E-01  1.25000000E-01       0.02344
    29)    -2.50000000E-01  5.00000000E-01  2.50000000E-01       0.01172

 Together with 24 symmetry operations and time-reversal symmetry 
 yields   512 points in the full Brillouin Zone.


 ==== Q-mesh for the screening function ====
 Number of points in the irreducible wedge :    29
 Reduced coordinates and weights : 

     1)     0.00000000E+00  0.00000000E+00  0.00000000E+00       0.00195
     2)     1.25000000E-01  0.00000000E+00  0.00000000E+00       0.01563
     3)     2.50000000E-01  0.00000000E+00  0.00000000E+00       0.01563
     4)     3.75000000E-01  0.00000000E+00  0.00000000E+00       0.01563
     5)     5.00000000E-01  0.00000000E+00  0.00000000E+00       0.00781
     6)     1.25000000E-01  1.25000000E-01  0.00000000E+00       0.01172
     7)     2.50000000E-01  1.25000000E-01  0.00000000E+00       0.04688
     8)     3.75000000E-01  1.25000000E-01  0.00000000E+00       0.04688
     9)     5.00000000E-01  1.25000000E-01  0.00000000E+00       0.04688
    10)    -3.75000000E-01  1.25000000E-01  0.00000000E+00       0.04688
    11)    -2.50000000E-01  1.25000000E-01  0.00000000E+00       0.04688
    12)    -1.25000000E-01  1.25000000E-01  0.00000000E+00       0.02344
    13)     2.50000000E-01  2.50000000E-01  0.00000000E+00       0.01172
    14)     3.75000000E-01  2.50000000E-01  0.00000000E+00       0.04688
    15)     5.00000000E-01  2.50000000E-01  0.00000000E+00       0.04688
    16)    -3.75000000E-01  2.50000000E-01  0.00000000E+00       0.04688
    17)    -2.50000000E-01  2.50000000E-01  0.00000000E+00       0.02344
    18)     3.75000000E-01  3.75000000E-01  0.00000000E+00       0.01172
    19)     5.00000000E-01  3.75000000E-01  0.00000000E+00       0.04688
    20)    -3.75000000E-01  3.75000000E-01  0.00000000E+00       0.02344
    21)     5.00000000E-01  5.00000000E-01  0.00000000E+00       0.00586
    22)     3.75000000E-01  2.50000000E-01  1.25000000E-01       0.04688
    23)     5.00000000E-01  2.50000000E-01  1.25000000E-01       0.09375
    24)    -3.75000000E-01  2.50000000E-01  1.25000000E-01       0.04688
    25)     5.00000000E-01  3.75000000E-01  1.25000000E-01       0.04688
    26)    -3.75000000E-01  3.75000000E-01  1.25000000E-01       0.09375
    27)    -2.50000000E-01  3.75000000E-01  1.25000000E-01       0.04688
    28)    -3.75000000E-01  5.00000000E-01  1.25000000E-01       0.02344
    29)    -2.50000000E-01  5.00000000E-01  2.50000000E-01       0.01172

 Together with 24 symmetry operations and time-reversal symmetry 
 yields   512 points in the full Brillouin Zone.


 Optimal value for ng0sh: [2, 1, 1]
  Due to umklapp processes : ecutepspg0=    11.420344429000846     

 setmesh: npwwfn        =     1139; Max (m1,m2,m3)   =      7     7     7
          npweps/npwsigx=      169; Max (mm1,mm2,mm3)=      5     4     4
          mG0 added     =   2  1  1
 calculated ecutwfn          =  43.989 [Ha] 
 calculated ecutsigx/ecuteps =  11.420 [Ha]
 using method =  2 with ecuteff = 100.237 [Ha]
 Finding a FFT mesh compatible with all the symmetries
 setmesh: divisor mesh 1 1 1
 setmesh: FFT mesh size selected  =    24x   24x   24
          total number of points  =        13824

vcp%i_sz 3.391650E+03

 vcoul_init : cutoff-mode = AUXILIARY_FUNCTION
 q-points for optical limit:   1
     1)      0.000010    0.000020    0.000030

 ==== FFT mesh used for oscillator strengths ====
  FFT mesh divisions ........................    24   24   24
  Augmented FFT divisions ...................    25   25   24
  FFT algorithm .............................   312
  FFT cache size ............................    16
 Top of valence:   8.2213 (eV)
 Bottom of conduction:  12.7551 (eV)
 Fundamental gap:  4.5338 (eV)

 Fermi level: 10.4882  (eV) 

 Memory needed for Fourier components u(G):      1.6 [Mb] <<< MEM
 Storing wavefunctions in single precision as `enable_gw_dpc="no"`
 Memory needed for real-space u(r):     18.4 [Mb] <<< MEM
 Memory needed for bks_tab:      3.4 [Mb] <<< MEM
 wfd_init , wall:  0.04 [s] , cpu:  0.04 [s] <<< TIME
 ==== Info on the Wfd% object ====
  Number of irreducible k-points ........ 29
  Number of spinorial components ........ 1
  Number of spin-density components ..... 1
  Number of spin polarizations .......... 1
  Plane wave cutoff energy ..............  45.0
  Max number of G-vectors ............... 1174
  Total number of FFT points ............ 13824
  Number of FFT points treated by me .... 13824


 ==== FFT mesh for wavefunctions ====
  FFT mesh divisions ........................    24   24   24
  Augmented FFT divisions ...................    25   25   24
  FFT algorithm .............................   312
  FFT cache size ............................    16

 Total number of (b,k,s) states stored by this rank: 174
 Memory allocated for Fourier components u(G):      1.6 [Mb] <<< MEM
 Memory allocated for real-space u(r):      0.0 [Mb] <<< MEM
 Memory needed for wfd%s datastructure:      0.0 [Mb] <<< MEM
 Memory needed for wfd%s(0)%k datastructure:      0.0 [Mb] <<< MEM
 Memory allocated for Kdata array:      0.0 [Mb] <<< MEM



 wfd_read_wfk: Reading file: ../outdata_gs_DS2_WFK  with iomode: IO_MODE_MPI , master_only: yes
 If MPI-IO is too slow, use the command line option `abinit --enforce-fortran-io ...` 
  to make the master proc read data with Fortran-IO and then broadcast (requires more memory)
 About to read: 174  (b, k, s) states in total.
 For spin: 1 , will read: 29  k-points out of: 29
    Reading kpt [1/29] spin [1/1] , wall:  0.07 [s] , cpu:  0.07 [s] <<< TIME
    Reading kpt [2/29] spin [1/1] , wall:  0.08 [s] , cpu:  0.08 [s] <<< TIME
    Reading kpt [3/29] spin [1/1] , wall:  0.08 [s] , cpu:  0.08 [s] <<< TIME
    Reading kpt [4/29] spin [1/1] , wall:  0.08 [s] , cpu:  0.08 [s] <<< TIME
    Reading kpt [5/29] spin [1/1] , wall:  0.08 [s] , cpu:  0.08 [s] <<< TIME
    Reading kpt [6/29] spin [1/1] , wall:  0.03 [s] , cpu:  0.03 [s] <<< TIME
    Reading kpt [7/29] spin [1/1] , wall:  0.02 [s] , cpu:  0.02 [s] <<< TIME
    Reading kpt [8/29] spin [1/1] , wall:  0.02 [s] , cpu:  0.02 [s] <<< TIME
    Reading kpt [9/29] spin [1/1] , wall:  0.02 [s] , cpu:  0.02 [s] <<< TIME
    Reading kpt [10/29] spin [1/1] , wall:  0.02 [s] , cpu:  0.02 [s] <<< TIME
 WFK IO , wall:  1.06 [s] , cpu:  1.06 [s] <<< TIME


 planewave contribution to nelect:    8.0000
 Number of electrons calculated from density =    8.0000; Expected =    8.0000
 average of density, n =  0.100376
 r_s =    1.3348
 omega_plasma =   30.5612 [eV]

 Total charge density [el/Bohr^3]
)     Maximum=    5.6358E-01  at reduced coord.    0.2000    0.2000    0.4000
)     Minimum=    7.6540E-03  at reduced coord.    0.0000    0.0000    0.0000
   Integrated=    8.0000E+00

 1/G**2 cut-off applied in the following step : cutoff-mode = CRYSTAL

 1/G**2 cut-off applied in the following step : cutoff-mode = CRYSTAL

 1/G**2 cut-off applied in the following step : cutoff-mode = CRYSTAL

 calculating chi0 at frequencies [eV] :
  1    0.000000E+00    0.000000E+00
  2    0.000000E+00    3.056116E+01
 Memory required for chi0 matrix=          0.4 [Mb].


--------------------------------------------------------------------------------
  q-point number  1        q = ( 0.000000, 0.000000, 0.000000) [r.l.u.]
--------------------------------------------------------------------------------
 Q-points for long wave-length limit. #   1
     1)      0.000010    0.000020    0.000030

 Using spectral method for the imaginary part =  0
 Using symmetries to sum only over the IBZ_q  =  1
 Using faster algorithm based on time reversal symmetry.
 Memory needed for bbp_ks_distrb: 450.0  [Mb] <<< MEM
 Will sum 232 (b,b',k,s) states in chi0q0.
 Calculating chi0(q=(0,0,0),omega,G,G")

 ==== Little Group Info ==== 
  External point: [ 0.0000E+00,  0.0000E+00,  0.0000E+00]
  Number of points in the IBZ defined by little group:  29/512
  Number of operations in the little group: 48/24
  No time-reversal symmetry with zero umklapp: 24
  No time-reversal symmetry with non-zero umklapp:  0

  time-reversal symmetry with zero umklapp: 24
  time-reversal symmetry with non-zero umklapp:  0

 Calculation status: 29  k-points to be completed
 ik=    1/ 512 spin= 1 done by mpi rank:  0
 ik=    2/ 512 spin= 1 done by mpi rank:  0
 ik=   10/ 512 spin= 1 done by mpi rank:  0
 ik=   18/ 512 spin= 1 done by mpi rank:  0
 ik=   26/ 512 spin= 1 done by mpi rank:  0
 ik=   30/ 512 spin= 1 done by mpi rank:  0
 ik=   36/ 512 spin= 1 done by mpi rank:  0
 ik=   60/ 512 spin= 1 done by mpi rank:  0
 ik=   84/ 512 spin= 1 done by mpi rank:  0
 ik=  108/ 512 spin= 1 done by mpi rank:  0
 ik=  132/ 512 spin= 1 done by mpi rank:  0
 ik=  156/ 512 spin= 1 done by mpi rank:  0
 ik=  168/ 512 spin= 1 done by mpi rank:  0
 ik=  174/ 512 spin= 1 done by mpi rank:  0
 ik=  198/ 512 spin= 1 done by mpi rank:  0
 ik=  222/ 512 spin= 1 done by mpi rank:  0
 ik=  246/ 512 spin= 1 done by mpi rank:  0
 ik=  258/ 512 spin= 1 done by mpi rank:  0
 ik=  264/ 512 spin= 1 done by mpi rank:  0
 ik=  288/ 512 spin= 1 done by mpi rank:  0
 ik=  300/ 512 spin= 1 done by mpi rank:  0
 ik=  303/ 512 spin= 1 done by mpi rank:  0
 ik=  327/ 512 spin= 1 done by mpi rank:  0
 ik=  375/ 512 spin= 1 done by mpi rank:  0
 ik=  399/ 512 spin= 1 done by mpi rank:  0
 ik=  423/ 512 spin= 1 done by mpi rank:  0
 ik=  471/ 512 spin= 1 done by mpi rank:  0
 ik=  495/ 512 spin= 1 done by mpi rank:  0
 ik=  507/ 512 spin= 1 done by mpi rank:  0
 cpu_time =       0.5, wall_time =       0.5
  chi0(G,G') at the    1 th omega   0.0000   0.0000 [eV]
  chi0(q =  1, omega =   1, G,G')
       1       2       3       4       5       6       7       8       9
    1  -0.000   0.000  -0.000   0.000  -0.000  -0.000   0.000  -0.000   0.000
       -0.000   0.000  -0.000   0.000  -0.000   0.000  -0.000   0.000  -0.000

    2   0.000  -8.084  -1.459  -1.459  -1.459   0.403   1.199   1.199   1.199
       -0.000   0.000  -0.000  -0.000   0.000  -1.940  -0.892  -0.892  -0.892

    3  -0.000  -1.459  -8.084  -1.459  -1.459   1.199   0.403   1.199   1.199
        0.000   0.000   0.000   0.000  -0.000  -0.892  -1.940  -0.892  -0.892

    4   0.000  -1.459  -1.459  -8.084  -1.459   1.199   1.199   0.403   1.199
       -0.000   0.000  -0.000   0.000   0.000  -0.892  -0.892  -1.940  -0.892

    5  -0.000  -1.459  -1.459  -1.459  -8.084   1.199   1.199   1.199   0.403
        0.000  -0.000   0.000  -0.000   0.000  -0.892  -0.892  -0.892  -1.940

    6  -0.000   0.403   1.199   1.199   1.199  -8.084  -1.459  -1.459  -1.459
       -0.000   1.940   0.892   0.892   0.892   0.000   0.000   0.000   0.000

    7   0.000   1.199   0.403   1.199   1.199  -1.459  -8.084  -1.459  -1.459
        0.000   0.892   1.940   0.892   0.892  -0.000   0.000   0.000   0.000

    8  -0.000   1.199   1.199   0.403   1.199  -1.459  -1.459  -8.084  -1.459
       -0.000   0.892   0.892   1.940   0.892  -0.000  -0.000   0.000   0.000

    9   0.000   1.199   1.199   1.199   0.403  -1.459  -1.459  -1.459  -8.084
        0.000   0.892   0.892   0.892   1.940  -0.000  -0.000  -0.000   0.000

  chi0(G,G') at the    2 th omega   0.0000  30.5612 [eV]
  chi0(q =  1, omega =   2, G,G')
       1       2       3       4       5       6       7       8       9
    1  -0.000   0.000  -0.000   0.000  -0.000  -0.000   0.000  -0.000   0.000
        0.000   0.000  -0.000   0.000  -0.000   0.000  -0.000   0.000  -0.000

    2   0.000  -3.948  -0.356  -0.356  -0.356   0.151   0.408   0.408   0.408
       -0.000   0.000  -0.000  -0.000   0.000  -0.457  -0.173  -0.173  -0.173

    3  -0.000  -0.356  -3.948  -0.356  -0.356   0.408   0.151   0.408   0.408
        0.000   0.000   0.000   0.000  -0.000  -0.173  -0.457  -0.173  -0.173

    4   0.000  -0.356  -0.356  -3.948  -0.356   0.408   0.408   0.151   0.408
       -0.000   0.000  -0.000   0.000   0.000  -0.173  -0.173  -0.457  -0.173

    5  -0.000  -0.356  -0.356  -0.356  -3.948   0.408   0.408   0.408   0.151
        0.000  -0.000   0.000  -0.000   0.000  -0.173  -0.173  -0.173  -0.457

    6  -0.000   0.151   0.408   0.408   0.408  -3.948  -0.356  -0.356  -0.356
       -0.000   0.457   0.173   0.173   0.173   0.000   0.000   0.000   0.000

    7   0.000   0.408   0.151   0.408   0.408  -0.356  -3.948  -0.356  -0.356
        0.000   0.173   0.457   0.173   0.173  -0.000   0.000   0.000  -0.000

    8  -0.000   0.408   0.408   0.151   0.408  -0.356  -0.356  -3.948  -0.356
       -0.000   0.173   0.173   0.457   0.173  -0.000  -0.000   0.000   0.000

    9   0.000   0.408   0.408   0.408   0.151  -0.356  -0.356  -0.356  -3.948
        0.000   0.173   0.173   0.173   0.457  -0.000   0.000  -0.000   0.000

 Analyzing long wavelength limit for several q
 For q-point:  0.000010 0.000020 0.000030
  dielectric constant =   4.3104
  dielectric constant without local fields =   4.6615

  Average fulfillment of the sum rule on Im[epsilon] for q-point    1 :    101.34  [%]


--------------------------------------------------------------------------------
  q-point number  2        q = ( 0.125000, 0.000000, 0.000000) [r.l.u.]
--------------------------------------------------------------------------------
 Using spectral method for the imaginary part =  0
 Using symmetries to sum only over the IBZ_q  =  1
 Using faster algorithm based on time reversal symmetry.
 Memory needed for bbp_ks_distrb: 450.0  [Mb] <<< MEM
 Will sum 960 (b,b',k,s) states in chi0.
 Calculating chi0(q,omega,G,G")

 ==== Little Group Info ==== 
  External point: [ 1.2500E-01,  0.0000E+00,  0.0000E+00]
  Number of points in the IBZ defined by little group:  120/512
  Number of operations in the little group: 6/24
  No time-reversal symmetry with zero umklapp:  6
  No time-reversal symmetry with non-zero umklapp:  0

  time-reversal symmetry with zero umklapp:  0
  time-reversal symmetry with non-zero umklapp:  0

 Calculation status: 120 k-points to be completed
 ik=    1/ 512 spin=  1 done by mpi rank:  0
 ik=    2/ 512 spin=  1 done by mpi rank:  0
 ik=    3/ 512 spin=  1 done by mpi rank:  0
 ik=    6/ 512 spin=  1 done by mpi rank:  0
 ik=    7/ 512 spin=  1 done by mpi rank:  0
 ik=   10/ 512 spin=  1 done by mpi rank:  0
 ik=   11/ 512 spin=  1 done by mpi rank:  0
 ik=   14/ 512 spin=  1 done by mpi rank:  0
 ik=   15/ 512 spin=  1 done by mpi rank:  0
 ik=   18/ 512 spin=  1 done by mpi rank:  0
 ik=   19/ 512 spin=  1 done by mpi rank:  0
 ik=   22/ 512 spin=  1 done by mpi rank:  0
 ik=   23/ 512 spin=  1 done by mpi rank:  0
 ik=   26/ 512 spin=  1 done by mpi rank:  0
 ik=   27/ 512 spin=  1 done by mpi rank:  0
 ik=   30/ 512 spin=  1 done by mpi rank:  0
 ik=   31/ 512 spin=  1 done by mpi rank:  0
 ik=   36/ 512 spin=  1 done by mpi rank:  0
 ik=   37/ 512 spin=  1 done by mpi rank:  0
 ik=   39/ 512 spin=  1 done by mpi rank:  0
 ik=   48/ 512 spin=  1 done by mpi rank:  0
 ik=   49/ 512 spin=  1 done by mpi rank:  0
 ik=   51/ 512 spin=  1 done by mpi rank:  0
 ik=   60/ 512 spin=  1 done by mpi rank:  0
 ik=   61/ 512 spin=  1 done by mpi rank:  0
 ik=   63/ 512 spin=  1 done by mpi rank:  0
 ik=   72/ 512 spin=  1 done by mpi rank:  0
 ik=   73/ 512 spin=  1 done by mpi rank:  0
 ik=   75/ 512 spin=  1 done by mpi rank:  0
 ik=   84/ 512 spin=  1 done by mpi rank:  0
 ik=   85/ 512 spin=  1 done by mpi rank:  0
 ik=   87/ 512 spin=  1 done by mpi rank:  0
 ik=   96/ 512 spin=  1 done by mpi rank:  0
 ik=   97/ 512 spin=  1 done by mpi rank:  0
 ik=   99/ 512 spin=  1 done by mpi rank:  0
 ik=  108/ 512 spin=  1 done by mpi rank:  0
 ik=  109/ 512 spin=  1 done by mpi rank:  0
 ik=  111/ 512 spin=  1 done by mpi rank:  0
 ik=  120/ 512 spin=  1 done by mpi rank:  0
 ik=  121/ 512 spin=  1 done by mpi rank:  0
 ik=  123/ 512 spin=  1 done by mpi rank:  0
 ik=  132/ 512 spin=  1 done by mpi rank:  0
 ik=  133/ 512 spin=  1 done by mpi rank:  0
 ik=  135/ 512 spin=  1 done by mpi rank:  0
 ik=  144/ 512 spin=  1 done by mpi rank:  0
 ik=  145/ 512 spin=  1 done by mpi rank:  0
 ik=  147/ 512 spin=  1 done by mpi rank:  0
 ik=  156/ 512 spin=  1 done by mpi rank:  0
 ik=  157/ 512 spin=  1 done by mpi rank:  0
 ik=  159/ 512 spin=  1 done by mpi rank:  0
 ik=  168/ 512 spin=  1 done by mpi rank:  0
 ik=  169/ 512 spin=  1 done by mpi rank:  0
 ik=  174/ 512 spin=  1 done by mpi rank:  0
 ik=  175/ 512 spin=  1 done by mpi rank:  0
 ik=  177/ 512 spin=  1 done by mpi rank:  0
 ik=  186/ 512 spin=  1 done by mpi rank:  0
 ik=  187/ 512 spin=  1 done by mpi rank:  0
 ik=  189/ 512 spin=  1 done by mpi rank:  0
 ik=  198/ 512 spin=  1 done by mpi rank:  0
 ik=  199/ 512 spin=  1 done by mpi rank:  0
 ik=  201/ 512 spin=  1 done by mpi rank:  0
 ik=  210/ 512 spin=  1 done by mpi rank:  0
 ik=  211/ 512 spin=  1 done by mpi rank:  0
 ik=  213/ 512 spin=  1 done by mpi rank:  0
 ik=  222/ 512 spin=  1 done by mpi rank:  0
 ik=  223/ 512 spin=  1 done by mpi rank:  0
 ik=  225/ 512 spin=  1 done by mpi rank:  0
 ik=  234/ 512 spin=  1 done by mpi rank:  0
 ik=  235/ 512 spin=  1 done by mpi rank:  0
 ik=  237/ 512 spin=  1 done by mpi rank:  0
 ik=  246/ 512 spin=  1 done by mpi rank:  0
 ik=  247/ 512 spin=  1 done by mpi rank:  0
 ik=  249/ 512 spin=  1 done by mpi rank:  0
 ik=  258/ 512 spin=  1 done by mpi rank:  0
 ik=  259/ 512 spin=  1 done by mpi rank:  0
 ik=  264/ 512 spin=  1 done by mpi rank:  0
 ik=  265/ 512 spin=  1 done by mpi rank:  0
 ik=  267/ 512 spin=  1 done by mpi rank:  0
 ik=  276/ 512 spin=  1 done by mpi rank:  0
 ik=  277/ 512 spin=  1 done by mpi rank:  0
 ik=  279/ 512 spin=  1 done by mpi rank:  0
 ik=  288/ 512 spin=  1 done by mpi rank:  0
 ik=  289/ 512 spin=  1 done by mpi rank:  0
 ik=  291/ 512 spin=  1 done by mpi rank:  0
 ik=  300/ 512 spin=  1 done by mpi rank:  0
 ik=  303/ 512 spin=  1 done by mpi rank:  0
 ik=  304/ 512 spin=  1 done by mpi rank:  0
 ik=  305/ 512 spin=  1 done by mpi rank:  0
 ik=  306/ 512 spin=  1 done by mpi rank:  0
 ik=  327/ 512 spin=  1 done by mpi rank:  0
 ik=  328/ 512 spin=  1 done by mpi rank:  0
 ik=  329/ 512 spin=  1 done by mpi rank:  0
 ik=  330/ 512 spin=  1 done by mpi rank:  0
 ik=  351/ 512 spin=  1 done by mpi rank:  0
 ik=  352/ 512 spin=  1 done by mpi rank:  0
 ik=  353/ 512 spin=  1 done by mpi rank:  0
 ik=  354/ 512 spin=  1 done by mpi rank:  0
 ik=  375/ 512 spin=  1 done by mpi rank:  0
 ik=  376/ 512 spin=  1 done by mpi rank:  0
 ik=  377/ 512 spin=  1 done by mpi rank:  0
 ik=  378/ 512 spin=  1 done by mpi rank:  0
 ik=  399/ 512 spin=  1 done by mpi rank:  0
 ik=  400/ 512 spin=  1 done by mpi rank:  0
 ik=  401/ 512 spin=  1 done by mpi rank:  0
 ik=  402/ 512 spin=  1 done by mpi rank:  0
 ik=  423/ 512 spin=  1 done by mpi rank:  0
 ik=  424/ 512 spin=  1 done by mpi rank:  0
 ik=  425/ 512 spin=  1 done by mpi rank:  0
 ik=  426/ 512 spin=  1 done by mpi rank:  0
 ik=  447/ 512 spin=  1 done by mpi rank:  0
 ik=  448/ 512 spin=  1 done by mpi rank:  0
 ik=  449/ 512 spin=  1 done by mpi rank:  0
 ik=  450/ 512 spin=  1 done by mpi rank:  0
 ik=  471/ 512 spin=  1 done by mpi rank:  0
 ik=  472/ 512 spin=  1 done by mpi rank:  0
 ik=  473/ 512 spin=  1 done by mpi rank:  0
 ik=  474/ 512 spin=  1 done by mpi rank:  0
 ik=  495/ 512 spin=  1 done by mpi rank:  0
 ik=  496/ 512 spin=  1 done by mpi rank:  0
 ik=  507/ 512 spin=  1 done by mpi rank:  0
 cpu_time =       0.6, wall_time =       0.6
  chi0(G,G') at the    1 th omega   0.0000   0.0000 [eV]
  chi0(q =  2, omega =   1, G,G')
       1       2       3       4       5       6       7       8       9
    1  -0.830  -0.111  -0.089  -0.089  -0.089   0.030  -0.114  -0.114  -0.114
        0.000  -0.575  -0.046  -0.046  -0.046  -0.586   0.399   0.399   0.399

    2  -0.111  -8.110  -1.517  -1.517  -1.517   0.420   1.282   1.282   1.282
        0.575   0.000   0.058   0.058   0.058  -1.901  -0.832  -0.832  -0.832

    3  -0.089  -1.517  -8.092  -1.382  -1.382   1.048   0.491   1.228   1.228
        0.046  -0.058   0.000   0.000   0.000  -0.870  -1.822  -0.812  -0.812

    4  -0.089  -1.517  -1.382  -8.092  -1.382   1.048   1.228   0.491   1.228
        0.046  -0.058  -0.000   0.000   0.000  -0.870  -0.812  -1.822  -0.812

    5  -0.089  -1.517  -1.382  -1.382  -8.092   1.048   1.228   1.228   0.491
        0.046  -0.058  -0.000  -0.000   0.000  -0.870  -0.812  -0.812  -1.822

    6   0.030   0.420   1.048   1.048   1.048  -7.820  -1.322  -1.322  -1.322
        0.586   1.901   0.870   0.870   0.870   0.000   0.074   0.074   0.074

    7  -0.114   1.282   0.491   1.228   1.228  -1.322  -8.148  -1.556  -1.556
       -0.399   0.832   1.822   0.812   0.812  -0.074   0.000  -0.000   0.000

    8  -0.114   1.282   1.228   0.491   1.228  -1.322  -1.556  -8.148  -1.556
       -0.399   0.832   0.812   1.822   0.812  -0.074   0.000   0.000   0.000

    9  -0.114   1.282   1.228   1.228   0.491  -1.322  -1.556  -1.556  -8.148
       -0.399   0.832   0.812   0.812   1.822  -0.074  -0.000  -0.000   0.000

  chi0(G,G') at the    2 th omega   0.0000  30.5612 [eV]
  chi0(q =  2, omega =   2, G,G')
       1       2       3       4       5       6       7       8       9
    1  -0.157  -0.043  -0.004  -0.004  -0.004   0.030  -0.026  -0.026  -0.026
        0.000  -0.184   0.018   0.018   0.018  -0.167   0.096   0.096   0.096

    2  -0.043  -4.176  -0.372  -0.372  -0.372   0.149   0.480   0.480   0.480
        0.184   0.000   0.009   0.009   0.009  -0.448  -0.172  -0.172  -0.172

    3  -0.004  -0.372  -3.867  -0.339  -0.339   0.324   0.160   0.416   0.416
       -0.018  -0.009   0.000   0.000  -0.000  -0.163  -0.443  -0.166  -0.166

    4  -0.004  -0.372  -0.339  -3.867  -0.339   0.324   0.416   0.160   0.416
       -0.018  -0.009  -0.000   0.000   0.000  -0.163  -0.166  -0.443  -0.166

    5  -0.004  -0.372  -0.339  -0.339  -3.867   0.324   0.416   0.416   0.160
       -0.018  -0.009   0.000  -0.000   0.000  -0.163  -0.166  -0.166  -0.443

    6   0.030   0.149   0.324   0.324   0.324  -3.598  -0.329  -0.329  -0.329
        0.167   0.448   0.163   0.163   0.163   0.000   0.010   0.010   0.010

    7  -0.026   0.480   0.160   0.416   0.416  -0.329  -4.052  -0.379  -0.379
       -0.096   0.172   0.443   0.166   0.166  -0.010   0.000  -0.000   0.000

    8  -0.026   0.480   0.416   0.160   0.416  -0.329  -0.379  -4.052  -0.379
       -0.096   0.172   0.166   0.443   0.166  -0.010   0.000   0.000   0.000

    9  -0.026   0.480   0.416   0.416   0.160  -0.329  -0.379  -0.379  -4.052
       -0.096   0.172   0.166   0.166   0.443  -0.010  -0.000  -0.000   0.000

  Average fulfillment of the sum rule on Im[epsilon] for q-point    2 :    101.94  [%]


--------------------------------------------------------------------------------
  q-point number  3        q = ( 0.250000, 0.000000, 0.000000) [r.l.u.]
--------------------------------------------------------------------------------
 Using spectral method for the imaginary part =  0
 Using symmetries to sum only over the IBZ_q  =  1
 Using faster algorithm based on time reversal symmetry.
 Memory needed for bbp_ks_distrb: 450.0  [Mb] <<< MEM
 Will sum 960 (b,b',k,s) states in chi0.
 Calculating chi0(q,omega,G,G")

 ==== Little Group Info ==== 
  External point: [ 2.5000E-01,  0.0000E+00,  0.0000E+00]
  Number of points in the IBZ defined by little group:  120/512
  Number of operations in the little group: 6/24
  No time-reversal symmetry with zero umklapp:  6
  No time-reversal symmetry with non-zero umklapp:  0

  time-reversal symmetry with zero umklapp:  0
  time-reversal symmetry with non-zero umklapp:  0

 Calculation status: 120 k-points to be completed
 ik=    1/ 512 spin=  1 done by mpi rank:  0
 ik=    2/ 512 spin=  1 done by mpi rank:  0
 ik=    3/ 512 spin=  1 done by mpi rank:  0
 ik=    6/ 512 spin=  1 done by mpi rank:  0
 ik=    7/ 512 spin=  1 done by mpi rank:  0
 ik=   10/ 512 spin=  1 done by mpi rank:  0
 ik=   11/ 512 spin=  1 done by mpi rank:  0
 ik=   14/ 512 spin=  1 done by mpi rank:  0
 ik=   15/ 512 spin=  1 done by mpi rank:  0
 ik=   18/ 512 spin=  1 done by mpi rank:  0
 ik=   19/ 512 spin=  1 done by mpi rank:  0
 ik=   22/ 512 spin=  1 done by mpi rank:  0
 ik=   23/ 512 spin=  1 done by mpi rank:  0
 ik=   26/ 512 spin=  1 done by mpi rank:  0
 ik=   27/ 512 spin=  1 done by mpi rank:  0
 ik=   30/ 512 spin=  1 done by mpi rank:  0
 ik=   31/ 512 spin=  1 done by mpi rank:  0
 ik=   36/ 512 spin=  1 done by mpi rank:  0
 ik=   37/ 512 spin=  1 done by mpi rank:  0
 ik=   39/ 512 spin=  1 done by mpi rank:  0
 ik=   48/ 512 spin=  1 done by mpi rank:  0
 ik=   49/ 512 spin=  1 done by mpi rank:  0
 ik=   51/ 512 spin=  1 done by mpi rank:  0
 ik=   60/ 512 spin=  1 done by mpi rank:  0
 ik=   61/ 512 spin=  1 done by mpi rank:  0
 ik=   63/ 512 spin=  1 done by mpi rank:  0
 ik=   72/ 512 spin=  1 done by mpi rank:  0
 ik=   73/ 512 spin=  1 done by mpi rank:  0
 ik=   75/ 512 spin=  1 done by mpi rank:  0
 ik=   84/ 512 spin=  1 done by mpi rank:  0
 ik=   85/ 512 spin=  1 done by mpi rank:  0
 ik=   87/ 512 spin=  1 done by mpi rank:  0
 ik=   96/ 512 spin=  1 done by mpi rank:  0
 ik=   97/ 512 spin=  1 done by mpi rank:  0
 ik=   99/ 512 spin=  1 done by mpi rank:  0
 ik=  108/ 512 spin=  1 done by mpi rank:  0
 ik=  109/ 512 spin=  1 done by mpi rank:  0
 ik=  111/ 512 spin=  1 done by mpi rank:  0
 ik=  120/ 512 spin=  1 done by mpi rank:  0
 ik=  121/ 512 spin=  1 done by mpi rank:  0
 ik=  123/ 512 spin=  1 done by mpi rank:  0
 ik=  132/ 512 spin=  1 done by mpi rank:  0
 ik=  133/ 512 spin=  1 done by mpi rank:  0
 ik=  135/ 512 spin=  1 done by mpi rank:  0
 ik=  144/ 512 spin=  1 done by mpi rank:  0
 ik=  145/ 512 spin=  1 done by mpi rank:  0
 ik=  147/ 512 spin=  1 done by mpi rank:  0
 ik=  156/ 512 spin=  1 done by mpi rank:  0
 ik=  157/ 512 spin=  1 done by mpi rank:  0
 ik=  159/ 512 spin=  1 done by mpi rank:  0
 ik=  168/ 512 spin=  1 done by mpi rank:  0
 ik=  169/ 512 spin=  1 done by mpi rank:  0
 ik=  174/ 512 spin=  1 done by mpi rank:  0
 ik=  175/ 512 spin=  1 done by mpi rank:  0
 ik=  177/ 512 spin=  1 done by mpi rank:  0
 ik=  186/ 512 spin=  1 done by mpi rank:  0
 ik=  187/ 512 spin=  1 done by mpi rank:  0
 ik=  189/ 512 spin=  1 done by mpi rank:  0
 ik=  198/ 512 spin=  1 done by mpi rank:  0
 ik=  199/ 512 spin=  1 done by mpi rank:  0
 ik=  201/ 512 spin=  1 done by mpi rank:  0
 ik=  210/ 512 spin=  1 done by mpi rank:  0
 ik=  211/ 512 spin=  1 done by mpi rank:  0
 ik=  213/ 512 spin=  1 done by mpi rank:  0
 ik=  222/ 512 spin=  1 done by mpi rank:  0
 ik=  223/ 512 spin=  1 done by mpi rank:  0
 ik=  225/ 512 spin=  1 done by mpi rank:  0
 ik=  234/ 512 spin=  1 done by mpi rank:  0
 ik=  235/ 512 spin=  1 done by mpi rank:  0
 ik=  237/ 512 spin=  1 done by mpi rank:  0
 ik=  246/ 512 spin=  1 done by mpi rank:  0
 ik=  247/ 512 spin=  1 done by mpi rank:  0
 ik=  249/ 512 spin=  1 done by mpi rank:  0
 ik=  258/ 512 spin=  1 done by mpi rank:  0
 ik=  259/ 512 spin=  1 done by mpi rank:  0
 ik=  264/ 512 spin=  1 done by mpi rank:  0
 ik=  265/ 512 spin=  1 done by mpi rank:  0
 ik=  267/ 512 spin=  1 done by mpi rank:  0
 ik=  276/ 512 spin=  1 done by mpi rank:  0
 ik=  277/ 512 spin=  1 done by mpi rank:  0
 ik=  279/ 512 spin=  1 done by mpi rank:  0
 ik=  288/ 512 spin=  1 done by mpi rank:  0
 ik=  289/ 512 spin=  1 done by mpi rank:  0
 ik=  291/ 512 spin=  1 done by mpi rank:  0
 ik=  300/ 512 spin=  1 done by mpi rank:  0
 ik=  303/ 512 spin=  1 done by mpi rank:  0
 ik=  304/ 512 spin=  1 done by mpi rank:  0
 ik=  305/ 512 spin=  1 done by mpi rank:  0
 ik=  306/ 512 spin=  1 done by mpi rank:  0
 ik=  327/ 512 spin=  1 done by mpi rank:  0
 ik=  328/ 512 spin=  1 done by mpi rank:  0
 ik=  329/ 512 spin=  1 done by mpi rank:  0
 ik=  330/ 512 spin=  1 done by mpi rank:  0
 ik=  351/ 512 spin=  1 done by mpi rank:  0
 ik=  352/ 512 spin=  1 done by mpi rank:  0
 ik=  353/ 512 spin=  1 done by mpi rank:  0
 ik=  354/ 512 spin=  1 done by mpi rank:  0
 ik=  375/ 512 spin=  1 done by mpi rank:  0
 ik=  376/ 512 spin=  1 done by mpi rank:  0
 ik=  377/ 512 spin=  1 done by mpi rank:  0
 ik=  378/ 512 spin=  1 done by mpi rank:  0
 ik=  399/ 512 spin=  1 done by mpi rank:  0
 ik=  400/ 512 spin=  1 done by mpi rank:  0
 ik=  401/ 512 spin=  1 done by mpi rank:  0
 ik=  402/ 512 spin=  1 done by mpi rank:  0
 ik=  423/ 512 spin=  1 done by mpi rank:  0
 ik=  424/ 512 spin=  1 done by mpi rank:  0
 ik=  425/ 512 spin=  1 done by mpi rank:  0
 ik=  426/ 512 spin=  1 done by mpi rank:  0
 ik=  447/ 512 spin=  1 done by mpi rank:  0
 ik=  448/ 512 spin=  1 done by mpi rank:  0
 ik=  449/ 512 spin=  1 done by mpi rank:  0
 ik=  450/ 512 spin=  1 done by mpi rank:  0
 ik=  471/ 512 spin=  1 done by mpi rank:  0
 ik=  472/ 512 spin=  1 done by mpi rank:  0
 ik=  473/ 512 spin=  1 done by mpi rank:  0
 ik=  474/ 512 spin=  1 done by mpi rank:  0
 ik=  495/ 512 spin=  1 done by mpi rank:  0
 ik=  496/ 512 spin=  1 done by mpi rank:  0
 ik=  507/ 512 spin=  1 done by mpi rank:  0
 cpu_time =       0.7, wall_time =       0.7
  chi0(G,G') at the    1 th omega   0.0000   0.0000 [eV]
  chi0(q =  3, omega =   1, G,G')
       1       2       3       4       5       6       7       8       9
    1  -2.602  -0.266  -0.328  -0.328  -0.328   0.017  -0.293  -0.293  -0.293
        0.000  -0.974  -0.474  -0.474  -0.474  -0.991   0.922   0.922   0.922

    2  -0.266  -7.918  -1.447  -1.447  -1.447   0.455   1.296   1.296   1.296
        0.974   0.000   0.074   0.074   0.074  -1.795  -0.720  -0.720  -0.720

    3  -0.328  -1.447  -8.197  -1.398  -1.398   0.873   0.680   1.282   1.282
        0.474  -0.074   0.000  -0.000  -0.000  -0.771  -1.558  -0.640  -0.640

    4  -0.328  -1.447  -1.398  -8.197  -1.398   0.873   1.282   0.680   1.282
        0.474  -0.074   0.000   0.000  -0.000  -0.771  -0.640  -1.558  -0.640

    5  -0.328  -1.447  -1.398  -1.398  -8.197   0.873   1.282   1.282   0.680
        0.474  -0.074   0.000   0.000   0.000  -0.771  -0.640  -0.640  -1.558

    6   0.017   0.455   0.873   0.873   0.873  -7.334  -1.167  -1.167  -1.167
        0.991   1.795   0.771   0.771   0.771   0.000   0.121   0.121   0.121

    7  -0.293   1.296   0.680   1.282   1.282  -1.167  -8.138  -1.550  -1.550
       -0.922   0.720   1.558   0.640   0.640  -0.121   0.000   0.000  -0.000

    8  -0.293   1.296   1.282   0.680   1.282  -1.167  -1.550  -8.138  -1.550
       -0.922   0.720   0.640   1.558   0.640  -0.121  -0.000   0.000   0.000

    9  -0.293   1.296   1.282   1.282   0.680  -1.167  -1.550  -1.550  -8.138
       -0.922   0.720   0.640   0.640   1.558  -0.121   0.000  -0.000   0.000

  chi0(G,G') at the    2 th omega   0.0000  30.5612 [eV]
  chi0(q =  3, omega =   2, G,G')
       1       2       3       4       5       6       7       8       9
    1  -0.589  -0.094  -0.039  -0.039  -0.039   0.047  -0.075  -0.075  -0.075
        0.000  -0.365  -0.045  -0.045  -0.045  -0.298   0.246   0.246   0.246

    2  -0.094  -4.288  -0.373  -0.373  -0.373   0.144   0.536   0.536   0.536
        0.365   0.000   0.015   0.015   0.015  -0.422  -0.163  -0.163  -0.163

    3  -0.039  -0.373  -3.828  -0.337  -0.337   0.231   0.183   0.438   0.438
        0.045  -0.015   0.000   0.000  -0.000  -0.141  -0.402  -0.145  -0.145

    4  -0.039  -0.373  -0.337  -3.828  -0.337   0.231   0.438   0.183   0.438
        0.045  -0.015  -0.000   0.000  -0.000  -0.141  -0.145  -0.402  -0.145

    5  -0.039  -0.373  -0.337  -0.337  -3.828   0.231   0.438   0.438   0.183
        0.045  -0.015   0.000   0.000   0.000  -0.141  -0.145  -0.145  -0.402

    6   0.047   0.144   0.231   0.231   0.231  -3.127  -0.293  -0.293  -0.293
        0.298   0.422   0.141   0.141   0.141   0.000   0.018   0.018   0.018

    7  -0.075   0.536   0.183   0.438   0.438  -0.293  -4.158  -0.398  -0.398
       -0.246   0.163   0.402   0.145   0.145  -0.018   0.000   0.000  -0.000

    8  -0.075   0.536   0.438   0.183   0.438  -0.293  -0.398  -4.158  -0.398
       -0.246   0.163   0.145   0.402   0.145  -0.018  -0.000   0.000   0.000

    9  -0.075   0.536   0.438   0.438   0.183  -0.293  -0.398  -0.398  -4.158
       -0.246   0.163   0.145   0.145   0.402  -0.018   0.000  -0.000   0.000

  Average fulfillment of the sum rule on Im[epsilon] for q-point    3 :    101.79  [%]


--------------------------------------------------------------------------------
  q-point number  4        q = ( 0.375000, 0.000000, 0.000000) [r.l.u.]
--------------------------------------------------------------------------------
 Using spectral method for the imaginary part =  0
 Using symmetries to sum only over the IBZ_q  =  1
 Using faster algorithm based on time reversal symmetry.
 Memory needed for bbp_ks_distrb: 450.0  [Mb] <<< MEM
 Will sum 960 (b,b',k,s) states in chi0.
 Calculating chi0(q,omega,G,G")

 ==== Little Group Info ==== 
  External point: [ 3.7500E-01,  0.0000E+00,  0.0000E+00]
  Number of points in the IBZ defined by little group:  120/512
  Number of operations in the little group: 6/24
  No time-reversal symmetry with zero umklapp:  6
  No time-reversal symmetry with non-zero umklapp:  0

  time-reversal symmetry with zero umklapp:  0
  time-reversal symmetry with non-zero umklapp:  0

 Calculation status: 120 k-points to be completed
 ik=    1/ 512 spin=  1 done by mpi rank:  0
 ik=    2/ 512 spin=  1 done by mpi rank:  0
 ik=    3/ 512 spin=  1 done by mpi rank:  0
 ik=    6/ 512 spin=  1 done by mpi rank:  0
 ik=    7/ 512 spin=  1 done by mpi rank:  0
 ik=   10/ 512 spin=  1 done by mpi rank:  0
 ik=   11/ 512 spin=  1 done by mpi rank:  0
 ik=   14/ 512 spin=  1 done by mpi rank:  0
 ik=   15/ 512 spin=  1 done by mpi rank:  0
 ik=   18/ 512 spin=  1 done by mpi rank:  0
 ik=   19/ 512 spin=  1 done by mpi rank:  0
 ik=   22/ 512 spin=  1 done by mpi rank:  0
 ik=   23/ 512 spin=  1 done by mpi rank:  0
 ik=   26/ 512 spin=  1 done by mpi rank:  0
 ik=   27/ 512 spin=  1 done by mpi rank:  0
 ik=   30/ 512 spin=  1 done by mpi rank:  0
 ik=   31/ 512 spin=  1 done by mpi rank:  0
 ik=   36/ 512 spin=  1 done by mpi rank:  0
 ik=   37/ 512 spin=  1 done by mpi rank:  0
 ik=   39/ 512 spin=  1 done by mpi rank:  0
 ik=   48/ 512 spin=  1 done by mpi rank:  0
 ik=   49/ 512 spin=  1 done by mpi rank:  0
 ik=   51/ 512 spin=  1 done by mpi rank:  0
 ik=   60/ 512 spin=  1 done by mpi rank:  0
 ik=   61/ 512 spin=  1 done by mpi rank:  0
 ik=   63/ 512 spin=  1 done by mpi rank:  0
 ik=   72/ 512 spin=  1 done by mpi rank:  0
 ik=   73/ 512 spin=  1 done by mpi rank:  0
 ik=   75/ 512 spin=  1 done by mpi rank:  0
 ik=   84/ 512 spin=  1 done by mpi rank:  0
 ik=   85/ 512 spin=  1 done by mpi rank:  0
 ik=   87/ 512 spin=  1 done by mpi rank:  0
 ik=   96/ 512 spin=  1 done by mpi rank:  0
 ik=   97/ 512 spin=  1 done by mpi rank:  0
 ik=   99/ 512 spin=  1 done by mpi rank:  0
 ik=  108/ 512 spin=  1 done by mpi rank:  0
 ik=  109/ 512 spin=  1 done by mpi rank:  0
 ik=  111/ 512 spin=  1 done by mpi rank:  0
 ik=  120/ 512 spin=  1 done by mpi rank:  0
 ik=  121/ 512 spin=  1 done by mpi rank:  0
 ik=  123/ 512 spin=  1 done by mpi rank:  0
 ik=  132/ 512 spin=  1 done by mpi rank:  0
 ik=  133/ 512 spin=  1 done by mpi rank:  0
 ik=  135/ 512 spin=  1 done by mpi rank:  0
 ik=  144/ 512 spin=  1 done by mpi rank:  0
 ik=  145/ 512 spin=  1 done by mpi rank:  0
 ik=  147/ 512 spin=  1 done by mpi rank:  0
 ik=  156/ 512 spin=  1 done by mpi rank:  0
 ik=  157/ 512 spin=  1 done by mpi rank:  0
 ik=  159/ 512 spin=  1 done by mpi rank:  0
 ik=  168/ 512 spin=  1 done by mpi rank:  0
 ik=  169/ 512 spin=  1 done by mpi rank:  0
 ik=  174/ 512 spin=  1 done by mpi rank:  0
 ik=  175/ 512 spin=  1 done by mpi rank:  0
 ik=  177/ 512 spin=  1 done by mpi rank:  0
 ik=  186/ 512 spin=  1 done by mpi rank:  0
 ik=  187/ 512 spin=  1 done by mpi rank:  0
 ik=  189/ 512 spin=  1 done by mpi rank:  0
 ik=  198/ 512 spin=  1 done by mpi rank:  0
 ik=  199/ 512 spin=  1 done by mpi rank:  0
 ik=  201/ 512 spin=  1 done by mpi rank:  0
 ik=  210/ 512 spin=  1 done by mpi rank:  0
 ik=  211/ 512 spin=  1 done by mpi rank:  0
 ik=  213/ 512 spin=  1 done by mpi rank:  0
 ik=  222/ 512 spin=  1 done by mpi rank:  0
 ik=  223/ 512 spin=  1 done by mpi rank:  0
 ik=  225/ 512 spin=  1 done by mpi rank:  0
 ik=  234/ 512 spin=  1 done by mpi rank:  0
 ik=  235/ 512 spin=  1 done by mpi rank:  0
 ik=  237/ 512 spin=  1 done by mpi rank:  0
 ik=  246/ 512 spin=  1 done by mpi rank:  0
 ik=  247/ 512 spin=  1 done by mpi rank:  0
 ik=  249/ 512 spin=  1 done by mpi rank:  0
 ik=  258/ 512 spin=  1 done by mpi rank:  0
 ik=  259/ 512 spin=  1 done by mpi rank:  0
 ik=  264/ 512 spin=  1 done by mpi rank:  0
 ik=  265/ 512 spin=  1 done by mpi rank:  0
 ik=  267/ 512 spin=  1 done by mpi rank:  0
 ik=  276/ 512 spin=  1 done by mpi rank:  0
 ik=  277/ 512 spin=  1 done by mpi rank:  0
 ik=  279/ 512 spin=  1 done by mpi rank:  0
 ik=  288/ 512 spin=  1 done by mpi rank:  0
 ik=  289/ 512 spin=  1 done by mpi rank:  0
 ik=  291/ 512 spin=  1 done by mpi rank:  0
 ik=  300/ 512 spin=  1 done by mpi rank:  0
 ik=  303/ 512 spin=  1 done by mpi rank:  0
 ik=  304/ 512 spin=  1 done by mpi rank:  0
 ik=  305/ 512 spin=  1 done by mpi rank:  0
 ik=  306/ 512 spin=  1 done by mpi rank:  0
 ik=  327/ 512 spin=  1 done by mpi rank:  0
 ik=  328/ 512 spin=  1 done by mpi rank:  0
 ik=  329/ 512 spin=  1 done by mpi rank:  0
 ik=  330/ 512 spin=  1 done by mpi rank:  0
 ik=  351/ 512 spin=  1 done by mpi rank:  0
 ik=  352/ 512 spin=  1 done by mpi rank:  0
 ik=  353/ 512 spin=  1 done by mpi rank:  0
 ik=  354/ 512 spin=  1 done by mpi rank:  0
 ik=  375/ 512 spin=  1 done by mpi rank:  0
 ik=  376/ 512 spin=  1 done by mpi rank:  0
 ik=  377/ 512 spin=  1 done by mpi rank:  0
 ik=  378/ 512 spin=  1 done by mpi rank:  0
 ik=  399/ 512 spin=  1 done by mpi rank:  0
 ik=  400/ 512 spin=  1 done by mpi rank:  0
 ik=  401/ 512 spin=  1 done by mpi rank:  0
 ik=  402/ 512 spin=  1 done by mpi rank:  0
 ik=  423/ 512 spin=  1 done by mpi rank:  0
 ik=  424/ 512 spin=  1 done by mpi rank:  0
 ik=  425/ 512 spin=  1 done by mpi rank:  0
 ik=  426/ 512 spin=  1 done by mpi rank:  0
 ik=  447/ 512 spin=  1 done by mpi rank:  0
 ik=  448/ 512 spin=  1 done by mpi rank:  0
 ik=  449/ 512 spin=  1 done by mpi rank:  0
 ik=  450/ 512 spin=  1 done by mpi rank:  0
 ik=  471/ 512 spin=  1 done by mpi rank:  0
 ik=  472/ 512 spin=  1 done by mpi rank:  0
 ik=  473/ 512 spin=  1 done by mpi rank:  0
 ik=  474/ 512 spin=  1 done by mpi rank:  0
 ik=  495/ 512 spin=  1 done by mpi rank:  0
 ik=  496/ 512 spin=  1 done by mpi rank:  0
 ik=  507/ 512 spin=  1 done by mpi rank:  0
 cpu_time =       0.6, wall_time =       0.6
  chi0(G,G') at the    1 th omega   0.0000   0.0000 [eV]
  chi0(q =  4, omega =   1, G,G')
       1       2       3       4       5       6       7       8       9
    1  -4.323  -0.405  -0.581  -0.581  -0.581   0.007  -0.418  -0.418  -0.418
        0.000  -1.214  -0.994  -0.994  -0.994  -1.197   1.316   1.316   1.316

    2  -0.405  -7.540  -1.268  -1.268  -1.268   0.483   1.270   1.270   1.270
        1.214   0.000   0.064   0.064   0.064  -1.643  -0.587  -0.587  -0.587

    3  -0.581  -1.268  -8.326  -1.477  -1.477   0.691   0.854   1.313   1.313
        0.994  -0.064   0.000   0.000   0.000  -0.630  -1.279  -0.471  -0.471

    4  -0.581  -1.268  -1.477  -8.326  -1.477   0.691   1.313   0.854   1.313
        0.994  -0.064  -0.000   0.000  -0.000  -0.630  -0.471  -1.279  -0.471

    5  -0.581  -1.268  -1.477  -1.477  -8.326   0.691   1.313   1.313   0.854
        0.994  -0.064  -0.000   0.000   0.000  -0.630  -0.471  -0.471  -1.279

    6   0.007   0.483   0.691   0.691   0.691  -6.630  -1.019  -1.019  -1.019
        1.197   1.643   0.630   0.630   0.630   0.000   0.135   0.135   0.135

    7  -0.418   1.270   0.854   1.313   1.313  -1.019  -7.986  -1.423  -1.423
       -1.316   0.587   1.279   0.471   0.471  -0.135   0.000  -0.000   0.000

    8  -0.418   1.270   1.313   0.854   1.313  -1.019  -1.423  -7.986  -1.423
       -1.316   0.587   0.471   1.279   0.471  -0.135   0.000   0.000   0.000

    9  -0.418   1.270   1.313   1.313   0.854  -1.019  -1.423  -1.423  -7.986
       -1.316   0.587   0.471   0.471   1.279  -0.135  -0.000  -0.000   0.000

  chi0(G,G') at the    2 th omega   0.0000  30.5612 [eV]
  chi0(q =  4, omega =   2, G,G')
       1       2       3       4       5       6       7       8       9
    1  -1.202  -0.148  -0.098  -0.098  -0.098   0.056  -0.132  -0.132  -0.132
        0.000  -0.528  -0.175  -0.175  -0.175  -0.380   0.418   0.418   0.418

    2  -0.148  -4.295  -0.360  -0.360  -0.360   0.132   0.576   0.576   0.576
        0.528   0.000   0.017   0.017   0.017  -0.379  -0.147  -0.147  -0.147

    3  -0.098  -0.360  -3.836  -0.353  -0.353   0.138   0.211   0.468   0.468
        0.175  -0.017   0.000   0.000   0.000  -0.110  -0.343  -0.116  -0.116

    4  -0.098  -0.360  -0.353  -3.836  -0.353   0.138   0.468   0.211   0.468
        0.175  -0.017  -0.000   0.000  -0.000  -0.110  -0.116  -0.343  -0.116

    5  -0.098  -0.360  -0.353  -0.353  -3.836   0.138   0.468   0.468   0.211
        0.175  -0.017  -0.000   0.000   0.000  -0.110  -0.116  -0.116  -0.343

    6   0.056   0.132   0.138   0.138   0.138  -2.546  -0.250  -0.250  -0.250
        0.380   0.379   0.110   0.110   0.110   0.000   0.022   0.022   0.022

    7  -0.132   0.576   0.211   0.468   0.468  -0.250  -4.242  -0.404  -0.404
       -0.418   0.147   0.343   0.116   0.116  -0.022   0.000  -0.000   0.000

    8  -0.132   0.576   0.468   0.211   0.468  -0.250  -0.404  -4.242  -0.404
       -0.418   0.147   0.116   0.343   0.116  -0.022   0.000   0.000   0.000

    9  -0.132   0.576   0.468   0.468   0.211  -0.250  -0.404  -0.404  -4.242
       -0.418   0.147   0.116   0.116   0.343  -0.022  -0.000  -0.000   0.000

  Average fulfillment of the sum rule on Im[epsilon] for q-point    4 :    101.66  [%]


--------------------------------------------------------------------------------
  q-point number  5        q = ( 0.500000, 0.000000, 0.000000) [r.l.u.]
--------------------------------------------------------------------------------
 Using spectral method for the imaginary part =  0
 Using symmetries to sum only over the IBZ_q  =  1
 Using faster algorithm based on time reversal symmetry.
 Memory needed for bbp_ks_distrb: 450.0  [Mb] <<< MEM
 Will sum 960 (b,b',k,s) states in chi0.
 Calculating chi0(q,omega,G,G")

 ==== Little Group Info ==== 
  External point: [ 5.0000E-01,  0.0000E+00,  0.0000E+00]
  Number of points in the IBZ defined by little group:  120/512
  Number of operations in the little group: 6/24
  No time-reversal symmetry with zero umklapp:  6
  No time-reversal symmetry with non-zero umklapp:  0

  time-reversal symmetry with zero umklapp:  0
  time-reversal symmetry with non-zero umklapp:  0

 Calculation status: 120 k-points to be completed
 ik=    1/ 512 spin=  1 done by mpi rank:  0
 ik=    2/ 512 spin=  1 done by mpi rank:  0
 ik=    3/ 512 spin=  1 done by mpi rank:  0
 ik=    6/ 512 spin=  1 done by mpi rank:  0
 ik=    7/ 512 spin=  1 done by mpi rank:  0
 ik=   10/ 512 spin=  1 done by mpi rank:  0
 ik=   11/ 512 spin=  1 done by mpi rank:  0
 ik=   14/ 512 spin=  1 done by mpi rank:  0
 ik=   15/ 512 spin=  1 done by mpi rank:  0
 ik=   18/ 512 spin=  1 done by mpi rank:  0
 ik=   19/ 512 spin=  1 done by mpi rank:  0
 ik=   22/ 512 spin=  1 done by mpi rank:  0
 ik=   23/ 512 spin=  1 done by mpi rank:  0
 ik=   26/ 512 spin=  1 done by mpi rank:  0
 ik=   27/ 512 spin=  1 done by mpi rank:  0
 ik=   30/ 512 spin=  1 done by mpi rank:  0
 ik=   31/ 512 spin=  1 done by mpi rank:  0
 ik=   36/ 512 spin=  1 done by mpi rank:  0
 ik=   37/ 512 spin=  1 done by mpi rank:  0
 ik=   39/ 512 spin=  1 done by mpi rank:  0
 ik=   48/ 512 spin=  1 done by mpi rank:  0
 ik=   49/ 512 spin=  1 done by mpi rank:  0
 ik=   51/ 512 spin=  1 done by mpi rank:  0
 ik=   60/ 512 spin=  1 done by mpi rank:  0
 ik=   61/ 512 spin=  1 done by mpi rank:  0
 ik=   63/ 512 spin=  1 done by mpi rank:  0
 ik=   72/ 512 spin=  1 done by mpi rank:  0
 ik=   73/ 512 spin=  1 done by mpi rank:  0
 ik=   75/ 512 spin=  1 done by mpi rank:  0
 ik=   84/ 512 spin=  1 done by mpi rank:  0
 ik=   85/ 512 spin=  1 done by mpi rank:  0
 ik=   87/ 512 spin=  1 done by mpi rank:  0
 ik=   96/ 512 spin=  1 done by mpi rank:  0
 ik=   97/ 512 spin=  1 done by mpi rank:  0
 ik=   99/ 512 spin=  1 done by mpi rank:  0
 ik=  108/ 512 spin=  1 done by mpi rank:  0
 ik=  109/ 512 spin=  1 done by mpi rank:  0
 ik=  111/ 512 spin=  1 done by mpi rank:  0
 ik=  120/ 512 spin=  1 done by mpi rank:  0
 ik=  121/ 512 spin=  1 done by mpi rank:  0
 ik=  123/ 512 spin=  1 done by mpi rank:  0
 ik=  132/ 512 spin=  1 done by mpi rank:  0
 ik=  133/ 512 spin=  1 done by mpi rank:  0
 ik=  135/ 512 spin=  1 done by mpi rank:  0
 ik=  144/ 512 spin=  1 done by mpi rank:  0
 ik=  145/ 512 spin=  1 done by mpi rank:  0
 ik=  147/ 512 spin=  1 done by mpi rank:  0
 ik=  156/ 512 spin=  1 done by mpi rank:  0
 ik=  157/ 512 spin=  1 done by mpi rank:  0
 ik=  159/ 512 spin=  1 done by mpi rank:  0
 ik=  168/ 512 spin=  1 done by mpi rank:  0
 ik=  169/ 512 spin=  1 done by mpi rank:  0
 ik=  174/ 512 spin=  1 done by mpi rank:  0
 ik=  175/ 512 spin=  1 done by mpi rank:  0
 ik=  177/ 512 spin=  1 done by mpi rank:  0
 ik=  186/ 512 spin=  1 done by mpi rank:  0
 ik=  187/ 512 spin=  1 done by mpi rank:  0
 ik=  189/ 512 spin=  1 done by mpi rank:  0
 ik=  198/ 512 spin=  1 done by mpi rank:  0
 ik=  199/ 512 spin=  1 done by mpi rank:  0
 ik=  201/ 512 spin=  1 done by mpi rank:  0
 ik=  210/ 512 spin=  1 done by mpi rank:  0
 ik=  211/ 512 spin=  1 done by mpi rank:  0
 ik=  213/ 512 spin=  1 done by mpi rank:  0
 ik=  222/ 512 spin=  1 done by mpi rank:  0
 ik=  223/ 512 spin=  1 done by mpi rank:  0
 ik=  225/ 512 spin=  1 done by mpi rank:  0
 ik=  234/ 512 spin=  1 done by mpi rank:  0
 ik=  235/ 512 spin=  1 done by mpi rank:  0
 ik=  237/ 512 spin=  1 done by mpi rank:  0
 ik=  246/ 512 spin=  1 done by mpi rank:  0
 ik=  247/ 512 spin=  1 done by mpi rank:  0
 ik=  249/ 512 spin=  1 done by mpi rank:  0
 ik=  258/ 512 spin=  1 done by mpi rank:  0
 ik=  259/ 512 spin=  1 done by mpi rank:  0
 ik=  264/ 512 spin=  1 done by mpi rank:  0
 ik=  265/ 512 spin=  1 done by mpi rank:  0
 ik=  267/ 512 spin=  1 done by mpi rank:  0
 ik=  276/ 512 spin=  1 done by mpi rank:  0
 ik=  277/ 512 spin=  1 done by mpi rank:  0
 ik=  279/ 512 spin=  1 done by mpi rank:  0
 ik=  288/ 512 spin=  1 done by mpi rank:  0
 ik=  289/ 512 spin=  1 done by mpi rank:  0
 ik=  291/ 512 spin=  1 done by mpi rank:  0
 ik=  300/ 512 spin=  1 done by mpi rank:  0
 ik=  303/ 512 spin=  1 done by mpi rank:  0
 ik=  304/ 512 spin=  1 done by mpi rank:  0
 ik=  305/ 512 spin=  1 done by mpi rank:  0
 ik=  306/ 512 spin=  1 done by mpi rank:  0
 ik=  327/ 512 spin=  1 done by mpi rank:  0
 ik=  328/ 512 spin=  1 done by mpi rank:  0
 ik=  329/ 512 spin=  1 done by mpi rank:  0
 ik=  330/ 512 spin=  1 done by mpi rank:  0
 ik=  351/ 512 spin=  1 done by mpi rank:  0
 ik=  352/ 512 spin=  1 done by mpi rank:  0
 ik=  353/ 512 spin=  1 done by mpi rank:  0
 ik=  354/ 512 spin=  1 done by mpi rank:  0
 ik=  375/ 512 spin=  1 done by mpi rank:  0
 ik=  376/ 512 spin=  1 done by mpi rank:  0
 ik=  377/ 512 spin=  1 done by mpi rank:  0
 ik=  378/ 512 spin=  1 done by mpi rank:  0
 ik=  399/ 512 spin=  1 done by mpi rank:  0
 ik=  400/ 512 spin=  1 done by mpi rank:  0
 ik=  401/ 512 spin=  1 done by mpi rank:  0
 ik=  402/ 512 spin=  1 done by mpi rank:  0
 ik=  423/ 512 spin=  1 done by mpi rank:  0
 ik=  424/ 512 spin=  1 done by mpi rank:  0
 ik=  425/ 512 spin=  1 done by mpi rank:  0
 ik=  426/ 512 spin=  1 done by mpi rank:  0
 ik=  447/ 512 spin=  1 done by mpi rank:  0
 ik=  448/ 512 spin=  1 done by mpi rank:  0
[...]
 Sigma_c: ik_bz 87/512, spin: 1 done by mpi-rank: 0
 Sigma_c: ik_bz 104/512, spin: 1 done by mpi-rank: 0
 Sigma_c: ik_bz 113/512, spin: 1 done by mpi-rank: 0
 Sigma_c: ik_bz 123/512, spin: 1 done by mpi-rank: 0
 Sigma_c: ik_bz 147/512, spin: 1 done by mpi-rank: 0
 Sigma_c: ik_bz 155/512, spin: 1 done by mpi-rank: 0
 Sigma_c: ik_bz 156/512, spin: 1 done by mpi-rank: 0
 Sigma_c: ik_bz 164/512, spin: 1 done by mpi-rank: 0
 Sigma_c: ik_bz 168/512, spin: 1 done by mpi-rank: 0
 Sigma_c: ik_bz 170/512, spin: 1 done by mpi-rank: 0
 Sigma_c: ik_bz 177/512, spin: 1 done by mpi-rank: 0
 Sigma_c: ik_bz 194/512, spin: 1 done by mpi-rank: 0
 Sigma_c: ik_bz 201/512, spin: 1 done by mpi-rank: 0
 Sigma_c: ik_bz 218/512, spin: 1 done by mpi-rank: 0
 Sigma_c: ik_bz 237/512, spin: 1 done by mpi-rank: 0
 Sigma_c: ik_bz 242/512, spin: 1 done by mpi-rank: 0
 Sigma_c: ik_bz 246/512, spin: 1 done by mpi-rank: 0
 Sigma_c: ik_bz 251/512, spin: 1 done by mpi-rank: 0
 Sigma_c: ik_bz 258/512, spin: 1 done by mpi-rank: 0
 Sigma_c: ik_bz 263/512, spin: 1 done by mpi-rank: 0
 Sigma_c: ik_bz 267/512, spin: 1 done by mpi-rank: 0
 Sigma_c: ik_bz 284/512, spin: 1 done by mpi-rank: 0
 Sigma_c: ik_bz 288/512, spin: 1 done by mpi-rank: 0
 Sigma_c: ik_bz 299/512, spin: 1 done by mpi-rank: 0
 Sigma_c: ik_bz 300/512, spin: 1 done by mpi-rank: 0
 Sigma_c: ik_bz 302/512, spin: 1 done by mpi-rank: 0
 Sigma_c: ik_bz 306/512, spin: 1 done by mpi-rank: 0
 Sigma_c: ik_bz 313/512, spin: 1 done by mpi-rank: 0
 Sigma_c: ik_bz 322/512, spin: 1 done by mpi-rank: 0
 Sigma_c: ik_bz 359/512, spin: 1 done by mpi-rank: 0
 Sigma_c: ik_bz 365/512, spin: 1 done by mpi-rank: 0
 Sigma_c: ik_bz 371/512, spin: 1 done by mpi-rank: 0
 Sigma_c: ik_bz 376/512, spin: 1 done by mpi-rank: 0
 Sigma_c: ik_bz 380/512, spin: 1 done by mpi-rank: 0
 Sigma_c: ik_bz 409/512, spin: 1 done by mpi-rank: 0
 Sigma_c: ik_bz 411/512, spin: 1 done by mpi-rank: 0
 Sigma_c: ik_bz 421/512, spin: 1 done by mpi-rank: 0
 Sigma_c: ik_bz 424/512, spin: 1 done by mpi-rank: 0
 Sigma_c: ik_bz 455/512, spin: 1 done by mpi-rank: 0
 Sigma_c: ik_bz 467/512, spin: 1 done by mpi-rank: 0
 Sigma_c: ik_bz 472/512, spin: 1 done by mpi-rank: 0
 Sigma_c: ik_bz 476/512, spin: 1 done by mpi-rank: 0
 Sigma_c: ik_bz 494/512, spin: 1 done by mpi-rank: 0
 Sigma_c: ik_bz 495/512, spin: 1 done by mpi-rank: 0
 Sigma_c: ik_bz 500/512, spin: 1 done by mpi-rank: 0
 Sigma_c: ik_bz 506/512, spin: 1 done by mpi-rank: 0
 Sigma_c: ik_bz 507/512, spin: 1 done by mpi-rank: 0
 Sigma_c: ik_bz 509/512, spin: 1 done by mpi-rank: 0
 cpu_time =       1.8, wall_time =       1.8

--- !WARNING
src_file: m_dyson_solver.F90
src_line: 231
message: |
    Values of Re Sig_c are not linear 
    band index = 1 spin|component = 1
    root mean square=      0.003884821758359
    estimated slope =     -0.297549101889334
    Omega [eV] SigC [eV]
...

-12.9895  8.7930
-12.7395  8.7118
-12.4895  8.6055
-12.2395  8.4934
-11.9895  8.3817
-11.7395  8.3115
-11.4895  8.1618
-11.2395  8.1174
-10.9895  8.3903

 k =    0.000   0.000   0.000
 Band     E0 <VxcDFT>   SigX SigC(E0)      Z dSigC/dE  Sig(E)    E-E0       E
    1 -11.989 -15.598 -26.827   8.382   0.771  -0.298 -17.792  -2.194 -14.184
    1   0.000   0.000   0.000   0.014   0.000   0.000   0.010   0.010   0.010
    2   8.221 -18.519 -22.080   2.230   0.826  -0.210 -19.619  -1.100   7.122
    2   0.000   0.000   0.000   0.000   0.000   0.000   0.000   0.000   0.000
    3   8.221 -18.519 -22.080   2.230   0.826  -0.210 -19.619  -1.100   7.122
    3   0.000   0.000   0.000   0.000   0.000   0.000   0.000   0.000   0.000
    4   8.221 -18.519 -22.080   2.230   0.826  -0.210 -19.619  -1.100   7.122
    4   0.000   0.000   0.000   0.000   0.000   0.000   0.000   0.000   0.000
    5  17.098 -13.778  -7.152  -5.378   0.842  -0.187 -12.727   1.051  18.149
    5   0.000   0.000   0.000  -0.000   0.000   0.000  -0.000  -0.000  -0.000
    6  17.098 -13.778  -7.152  -5.378   0.842  -0.187 -12.727   1.051  18.149
    6   0.000   0.000   0.000  -0.000   0.000   0.000  -0.000  -0.000  -0.000
    7  17.098 -13.778  -7.152  -5.378   0.842  -0.187 -12.727   1.051  18.149
    7   0.000   0.000   0.000  -0.000   0.000   0.000  -0.000  -0.000  -0.000
    8  18.587 -15.528  -8.704  -6.019   0.822  -0.216 -14.866   0.663  19.250
    8   0.000   0.000   0.000  -0.000   0.000   0.000  -0.000  -0.000  -0.000

 E^0_gap          8.877
 E^GW_gap        11.027
 DeltaE^GW_gap    2.151


 k =    0.500   0.500   0.000
 Band     E0 <VxcDFT>   SigX SigC(E0)      Z dSigC/dE  Sig(E)    E-E0       E
    1  -6.400 -17.414 -27.095   6.979   0.762  -0.312 -19.473  -2.059  -8.459
    1   0.000   0.000   0.000   0.010   0.000   0.000   0.008   0.008   0.008
    2  -0.686 -15.403 -22.372   4.493   0.805  -0.243 -17.396  -1.992  -2.679
    2   0.000   0.000   0.000   0.006   0.000   0.000   0.005   0.005   0.005
    3   3.313 -16.496 -21.658   3.296   0.814  -0.228 -18.015  -1.519   1.794
    3   0.000   0.000   0.000   0.000   0.000   0.000   0.000   0.000   0.000
    4   3.313 -16.496 -21.658   3.296   0.814  -0.228 -18.015  -1.519   1.794
    4   0.000   0.000   0.000   0.000   0.000   0.000   0.000   0.000   0.000
    5  12.755 -12.570  -7.394  -4.596   0.854  -0.171 -12.075   0.495  13.250
    5   0.000   0.000   0.000   0.000   0.000   0.000   0.000   0.000   0.000
    6  17.562 -12.696  -6.779  -5.189   0.850  -0.176 -12.077   0.619  18.181
    6   0.000   0.000   0.000   0.000   0.000   0.000   0.000   0.000   0.000
    7  26.126 -16.466  -6.653  -7.899   0.782  -0.279 -14.969   1.497  27.623
    7   0.000   0.000   0.000  -0.000   0.000   0.000  -0.000  -0.000  -0.000
    8  26.126 -16.466  -6.653  -7.899   0.782  -0.279 -14.969   1.497  27.623
    8   0.000   0.000   0.000  -0.000   0.000   0.000  -0.000  -0.000  -0.000

 E^0_gap          9.442
 E^GW_gap        11.457
 DeltaE^GW_gap    2.015

- Creating netcdf file WITHOUT MPI-IO support: outdata_ac_DS2_SIGRES.nc
 dataset: 2 , wall:  4.93 [s] , cpu:  4.80 [s] <<< TIME

== END DATASET(S) ==============================================================
================================================================================
  
 -outvars: echo values of variables after computation  --------
 
 These variables are accessible in NetCDF format (outdata_ac_OUT.nc)

            acell      6.8313599704E+00  6.8313599704E+00  6.8313599704E+00 Bohr
              amu      1.08110000E+01  1.40067400E+01
             bdgw           1       8       1       8
           diemac      1.20000000E+01
             ecut      4.50000000E+01 Hartree
          ecuteps      1.20000000E+01 Hartree
         ecutsigx      4.50000000E+01 Hartree
          ecutwfn      4.50000000E+01 Hartree
           etotal1     0.0000000000E+00
           etotal2     0.0000000000E+00
            fcart1     0.0000000000E+00  0.0000000000E+00  0.0000000000E+00
                       0.0000000000E+00  0.0000000000E+00  0.0000000000E+00
            fcart2     0.0000000000E+00  0.0000000000E+00  0.0000000000E+00
                       0.0000000000E+00  0.0000000000E+00  0.0000000000E+00
-          fftalg         312
           getscr1          0
           getscr2         -1
           istwfk        1    0    0    0    1    0    0    0    0    0
                         0    0    0    0    0    0    0    0    0    0
                         1    0    0    0    0    0    0    0    0
              ixc          11
           jdtset        1    2
              kpt      0.00000000E+00  0.00000000E+00  0.00000000E+00
                       1.25000000E-01  0.00000000E+00  0.00000000E+00
                       2.50000000E-01  0.00000000E+00  0.00000000E+00
                       3.75000000E-01  0.00000000E+00  0.00000000E+00
                       5.00000000E-01  0.00000000E+00  0.00000000E+00
                       1.25000000E-01  1.25000000E-01  0.00000000E+00
                       2.50000000E-01  1.25000000E-01  0.00000000E+00
                       3.75000000E-01  1.25000000E-01  0.00000000E+00
                       5.00000000E-01  1.25000000E-01  0.00000000E+00
                      -3.75000000E-01  1.25000000E-01  0.00000000E+00
                      -2.50000000E-01  1.25000000E-01  0.00000000E+00
                      -1.25000000E-01  1.25000000E-01  0.00000000E+00
                       2.50000000E-01  2.50000000E-01  0.00000000E+00
                       3.75000000E-01  2.50000000E-01  0.00000000E+00
                       5.00000000E-01  2.50000000E-01  0.00000000E+00
                      -3.75000000E-01  2.50000000E-01  0.00000000E+00
                      -2.50000000E-01  2.50000000E-01  0.00000000E+00
                       3.75000000E-01  3.75000000E-01  0.00000000E+00
                       5.00000000E-01  3.75000000E-01  0.00000000E+00
                      -3.75000000E-01  3.75000000E-01  0.00000000E+00
                       5.00000000E-01  5.00000000E-01  0.00000000E+00
                       3.75000000E-01  2.50000000E-01  1.25000000E-01
                       5.00000000E-01  2.50000000E-01  1.25000000E-01
                      -3.75000000E-01  2.50000000E-01  1.25000000E-01
                       5.00000000E-01  3.75000000E-01  1.25000000E-01
                      -3.75000000E-01  3.75000000E-01  1.25000000E-01
                      -2.50000000E-01  3.75000000E-01  1.25000000E-01
                      -3.75000000E-01  5.00000000E-01  1.25000000E-01
                      -2.50000000E-01  5.00000000E-01  2.50000000E-01
            kptgw      0.00000000E+00  0.00000000E+00  0.00000000E+00
                       5.00000000E-01  5.00000000E-01  0.00000000E+00
         kptrlatt        8    0    0      0    8    0      0    0    8
          kptrlen      3.86440077E+01
P           mkmem           1
            natom           2
            nband         480
           ndtset           2
            ngfft          30      30      30
             nkpt          29
           nkptgw           2
           npweps         169
          npwsigx        1139
           npwwfn        1139
            nstep          50
             nsym          24
           ntypat           2
              occ      2.000000  2.000000  2.000000  2.000000  0.000000  0.000000
                       0.000000  0.000000  0.000000  0.000000  0.000000  0.000000
                       0.000000  0.000000  0.000000  0.000000  0.000000  0.000000
                       0.000000  0.000000  0.000000  0.000000  0.000000  0.000000
                       0.000000  0.000000  0.000000  0.000000  0.000000  0.000000
                       0.000000  0.000000  0.000000  0.000000  0.000000  0.000000
                       0.000000  0.000000  0.000000  0.000000  0.000000  0.000000
                       0.000000  0.000000  0.000000  0.000000  0.000000  0.000000
                       0.000000  0.000000  0.000000  0.000000  0.000000  0.000000
                       0.000000  0.000000  0.000000  0.000000  0.000000  0.000000
                       0.000000  0.000000  0.000000  0.000000  0.000000  0.000000
                       0.000000  0.000000  0.000000  0.000000  0.000000  0.000000
                       0.000000  0.000000  0.000000  0.000000  0.000000  0.000000
                       0.000000  0.000000  0.000000  0.000000  0.000000  0.000000
                       0.000000  0.000000  0.000000  0.000000  0.000000  0.000000
                       0.000000  0.000000  0.000000  0.000000  0.000000  0.000000
                       0.000000  0.000000  0.000000  0.000000  0.000000  0.000000
                       0.000000  0.000000  0.000000  0.000000  0.000000  0.000000
                       0.000000  0.000000  0.000000  0.000000  0.000000  0.000000
                       0.000000  0.000000  0.000000  0.000000  0.000000  0.000000
                       0.000000  0.000000  0.000000  0.000000  0.000000  0.000000
                       0.000000  0.000000  0.000000  0.000000  0.000000  0.000000
                       0.000000  0.000000  0.000000  0.000000  0.000000  0.000000
                       0.000000  0.000000  0.000000  0.000000  0.000000  0.000000
                       0.000000  0.000000  0.000000  0.000000  0.000000  0.000000
                       0.000000  0.000000  0.000000  0.000000  0.000000  0.000000
                       0.000000  0.000000  0.000000  0.000000  0.000000  0.000000
                       0.000000  0.000000  0.000000  0.000000  0.000000  0.000000
                       0.000000  0.000000  0.000000  0.000000  0.000000  0.000000
                       0.000000  0.000000  0.000000  0.000000  0.000000  0.000000
                       0.000000  0.000000  0.000000  0.000000  0.000000  0.000000
                       0.000000  0.000000  0.000000  0.000000  0.000000  0.000000
                       0.000000  0.000000  0.000000  0.000000  0.000000  0.000000
                       0.000000  0.000000  0.000000  0.000000  0.000000  0.000000
                       0.000000  0.000000  0.000000  0.000000  0.000000  0.000000
                       0.000000  0.000000  0.000000  0.000000  0.000000  0.000000
                       0.000000  0.000000  0.000000  0.000000  0.000000  0.000000
                       0.000000  0.000000  0.000000  0.000000  0.000000  0.000000
                       0.000000  0.000000  0.000000  0.000000  0.000000  0.000000
                       0.000000  0.000000  0.000000  0.000000  0.000000  0.000000
                       0.000000  0.000000  0.000000  0.000000  0.000000  0.000000
                       0.000000  0.000000  0.000000  0.000000  0.000000  0.000000
                       0.000000  0.000000  0.000000  0.000000  0.000000  0.000000
                       0.000000  0.000000  0.000000  0.000000  0.000000  0.000000
                       0.000000  0.000000  0.000000  0.000000  0.000000  0.000000
                       0.000000  0.000000  0.000000  0.000000  0.000000  0.000000
                       0.000000  0.000000  0.000000  0.000000  0.000000  0.000000
                       0.000000  0.000000  0.000000  0.000000  0.000000  0.000000
                       0.000000  0.000000  0.000000  0.000000  0.000000  0.000000
                       0.000000  0.000000  0.000000  0.000000  0.000000  0.000000
                       0.000000  0.000000  0.000000  0.000000  0.000000  0.000000
                       0.000000  0.000000  0.000000  0.000000  0.000000  0.000000
                       0.000000  0.000000  0.000000  0.000000  0.000000  0.000000
                       0.000000  0.000000  0.000000  0.000000  0.000000  0.000000
                       0.000000  0.000000  0.000000  0.000000  0.000000  0.000000
                       0.000000  0.000000  0.000000  0.000000  0.000000  0.000000
                       0.000000  0.000000  0.000000  0.000000  0.000000  0.000000
                       0.000000  0.000000  0.000000  0.000000  0.000000  0.000000
                       0.000000  0.000000  0.000000  0.000000  0.000000  0.000000
                       0.000000  0.000000  0.000000  0.000000  0.000000  0.000000
                       0.000000  0.000000  0.000000  0.000000  0.000000  0.000000
                       0.000000  0.000000  0.000000  0.000000  0.000000  0.000000
                       0.000000  0.000000  0.000000  0.000000  0.000000  0.000000
                       0.000000  0.000000  0.000000  0.000000  0.000000  0.000000
                       0.000000  0.000000  0.000000  0.000000  0.000000  0.000000
                       0.000000  0.000000  0.000000  0.000000  0.000000  0.000000
                       0.000000  0.000000  0.000000  0.000000  0.000000  0.000000
                       0.000000  0.000000  0.000000  0.000000  0.000000  0.000000
                       0.000000  0.000000  0.000000  0.000000  0.000000  0.000000
                       0.000000  0.000000  0.000000  0.000000  0.000000  0.000000
                       0.000000  0.000000  0.000000  0.000000  0.000000  0.000000
                       0.000000  0.000000  0.000000  0.000000  0.000000  0.000000
                       0.000000  0.000000  0.000000  0.000000  0.000000  0.000000
                       0.000000  0.000000  0.000000  0.000000  0.000000  0.000000
                       0.000000  0.000000  0.000000  0.000000  0.000000  0.000000
                       0.000000  0.000000  0.000000  0.000000  0.000000  0.000000
                       0.000000  0.000000  0.000000  0.000000  0.000000  0.000000
                       0.000000  0.000000  0.000000  0.000000  0.000000  0.000000
                       0.000000  0.000000  0.000000  0.000000  0.000000  0.000000
                       0.000000  0.000000  0.000000  0.000000  0.000000  0.000000
        optdriver1          3
        optdriver2          4
            rprim      0.0000000000E+00  5.0000000000E-01  5.0000000000E-01
                       5.0000000000E-01  0.0000000000E+00  5.0000000000E-01
                       5.0000000000E-01  5.0000000000E-01  0.0000000000E+00
          spgroup         216
           strten1     0.0000000000E+00  0.0000000000E+00  0.0000000000E+00
                       0.0000000000E+00  0.0000000000E+00  0.0000000000E+00
           strten2     0.0000000000E+00  0.0000000000E+00  0.0000000000E+00
                       0.0000000000E+00  0.0000000000E+00  0.0000000000E+00
           symrel      1  0  0   0  1  0   0  0  1       0 -1  1   0 -1  0   1 -1  0
                      -1  0  0  -1  0  1  -1  1  0       0  1 -1   1  0 -1   0  0 -1
                      -1  0  0  -1  1  0  -1  0  1       0 -1  1   1 -1  0   0 -1  0
                       1  0  0   0  0  1   0  1  0       0  1 -1   0  0 -1   1  0 -1
                      -1  0  1  -1  1  0  -1  0  0       0 -1  0   1 -1  0   0 -1  1
                       1  0 -1   0  0 -1   0  1 -1       0  1  0   0  0  1   1  0  0
                       1  0 -1   0  1 -1   0  0 -1       0 -1  0   0 -1  1   1 -1  0
                      -1  0  1  -1  0  0  -1  1  0       0  1  0   1  0  0   0  0  1
                       0  0 -1   0  1 -1   1  0 -1       1 -1  0   0 -1  1   0 -1  0
                       0  0  1   1  0  0   0  1  0      -1  1  0  -1  0  0  -1  0  1
                       0  0  1   0  1  0   1  0  0       1 -1  0   0 -1  0   0 -1  1
                       0  0 -1   1  0 -1   0  1 -1      -1  1  0  -1  0  1  -1  0  0
           timopt          -1
            typat      1  2
              wtk        0.00195    0.01563    0.01563    0.01563    0.00781    0.01172
                         0.04688    0.04688    0.04688    0.04688    0.04688    0.02344
                         0.01172    0.04688    0.04688    0.04688    0.02344    0.01172
                         0.04688    0.02344    0.00586    0.04688    0.09375    0.04688
                         0.04688    0.09375    0.04688    0.02344    0.01172
           xangst      0.0000000000E+00  0.0000000000E+00  0.0000000000E+00
                       9.0375000000E-01  9.0375000000E-01  9.0375000000E-01
            xcart      0.0000000000E+00  0.0000000000E+00  0.0000000000E+00
                       1.7078399926E+00  1.7078399926E+00  1.7078399926E+00
             xred      0.0000000000E+00  0.0000000000E+00  0.0000000000E+00
                       2.5000000000E-01  2.5000000000E-01  2.5000000000E-01
            znucl        5.00000    7.00000

================================================================================
  
 Proc.   0 individual time (sec): cpu=         43.0  wall=         44.1

 Calculation completed.
.Delivered   0 WARNINGs and   0 COMMENTs to log file.

--- !FinalSummary
program: abinit
version: 9.9.2
start_datetime: Fri Feb 17 02:30:11 2023
end_datetime: Fri Feb 17 02:30:55 2023
overall_cpu_time:       11206.8
overall_wall_time:       11287.8
exit_requested_by_user: no 
timelimit: 0
pseudos: 
    B   : 33584e3c449dab07fef6d5ec47c17801
    N   : 01bdf84d59ae6bc236a02b05a98ec0f5
usepaw: 0
mpi_procs: 256
omp_threads: 1
num_warnings: 0
num_comments: 0
...
