
.Version 9.9.2 of ABINIT 
.(MPI version, prepared for a x86_64_linux_gnu11.2 computer) 

.Copyright (C) 1998-2022 ABINIT group . 
 ABINIT comes with ABSOLUTELY NO WARRANTY.
 It is free software, and you are welcome to redistribute it
 under certain conditions (GNU General Public License,
 see ~abinit/COPYING or http://www.gnu.org/copyleft/gpl.txt).

 ABINIT is a project of the Universite Catholique de Louvain,
 Corning Inc. and other collaborators, see ~abinit/doc/developers/contributors.txt .
 Please read https://docs.abinit.org/theory/acknowledgments for suggested
 acknowledgments of the ABINIT effort.
 For more information, see https://www.abinit.org .

.Starting date : Fri 17 Feb 2023.
- ( at 02h27 )
  
- input  file    -> run.abi
- output file    -> run.abo
- root for input  files -> ../indata_ac
- root for output files -> outdata_ac


 DATASET    1 : space group F-4 3 m (#216); Bravais cF (face-center cubic)
================================================================================
 Values of the parameters that define the memory need for DATASET  1.
     intxc =       0    ionmov =       0      iscf =       7    lmnmax =       4
     lnmax =       4     mgfft =      30  mpssoang =       2    mqgrid =    3001
     natom =       2  nloc_mem =       1    nspden =       1   nspinor =       1
    nsppol =       1      nsym =      24    n1xccc =    2501    ntypat =       2
    occopt =       1   xclevel =       2
-    mband =         480        mffmem =           1         mkmem =           1
       mpw =        1174          nfft =       27000          nkpt =          29
================================================================================
P This job should need less than                      25.614 Mbytes of memory.
  Rough estimation (10% accuracy) of disk space for files :
_ WF disk file :    249.362 Mbytes ; DEN or POT disk file :      0.208 Mbytes.
================================================================================


 DATASET    2 : space group F-4 3 m (#216); Bravais cF (face-center cubic)
================================================================================
 Values of the parameters that define the memory need for DATASET  2.
     intxc =       0    ionmov =       0      iscf =       7    lmnmax =       4
     lnmax =       4     mgfft =      30  mpssoang =       2    mqgrid =    3001
     natom =       2  nloc_mem =       1    nspden =       1   nspinor =       1
    nsppol =       1      nsym =      24    n1xccc =    2501    ntypat =       2
    occopt =       1   xclevel =       2
-    mband =         480        mffmem =           1         mkmem =           1
       mpw =        1174          nfft =       27000          nkpt =          29
================================================================================
P This job should need less than                      25.614 Mbytes of memory.
  Rough estimation (10% accuracy) of disk space for files :
_ WF disk file :    249.362 Mbytes ; DEN or POT disk file :      0.208 Mbytes.
================================================================================

--------------------------------------------------------------------------------
------------- Echo of variables that govern the present computation ------------
--------------------------------------------------------------------------------
-
- outvars: echo of selected default values                                      
-   iomode0 =  0 , fftalg0 =312 , wfoptalg0 =  0
-
- outvars: echo of global parameters not present in the input file              
-  max_nthreads =    0
-
 -outvars: echo values of preprocessed input variables --------
            acell      6.8313599704E+00  6.8313599704E+00  6.8313599704E+00 Bohr
              amu      1.08110000E+01  1.40067400E+01
             bdgw           1       8       1       8
           diemac      1.20000000E+01
             ecut      4.50000000E+01 Hartree
          ecuteps      1.20000000E+01 Hartree
         ecutsigx      4.50000000E+01 Hartree
          ecutwfn      4.50000000E+01 Hartree
-          fftalg         312
           getscr1          0
           getscr2         -1
           istwfk        1    0    0    0    1    0    0    0    0    0
                         0    0    0    0    0    0    0    0    0    0
                         1    0    0    0    0    0    0    0    0
              ixc          11
           jdtset        1    2
              kpt      0.00000000E+00  0.00000000E+00  0.00000000E+00
                       1.25000000E-01  0.00000000E+00  0.00000000E+00
                       2.50000000E-01  0.00000000E+00  0.00000000E+00
                       3.75000000E-01  0.00000000E+00  0.00000000E+00
                       5.00000000E-01  0.00000000E+00  0.00000000E+00
                       1.25000000E-01  1.25000000E-01  0.00000000E+00
                       2.50000000E-01  1.25000000E-01  0.00000000E+00
                       3.75000000E-01  1.25000000E-01  0.00000000E+00
                       5.00000000E-01  1.25000000E-01  0.00000000E+00
                      -3.75000000E-01  1.25000000E-01  0.00000000E+00
                      -2.50000000E-01  1.25000000E-01  0.00000000E+00
                      -1.25000000E-01  1.25000000E-01  0.00000000E+00
                       2.50000000E-01  2.50000000E-01  0.00000000E+00
                       3.75000000E-01  2.50000000E-01  0.00000000E+00
                       5.00000000E-01  2.50000000E-01  0.00000000E+00
                      -3.75000000E-01  2.50000000E-01  0.00000000E+00
                      -2.50000000E-01  2.50000000E-01  0.00000000E+00
                       3.75000000E-01  3.75000000E-01  0.00000000E+00
                       5.00000000E-01  3.75000000E-01  0.00000000E+00
                      -3.75000000E-01  3.75000000E-01  0.00000000E+00
                       5.00000000E-01  5.00000000E-01  0.00000000E+00
                       3.75000000E-01  2.50000000E-01  1.25000000E-01
                       5.00000000E-01  2.50000000E-01  1.25000000E-01
                      -3.75000000E-01  2.50000000E-01  1.25000000E-01
                       5.00000000E-01  3.75000000E-01  1.25000000E-01
                      -3.75000000E-01  3.75000000E-01  1.25000000E-01
                      -2.50000000E-01  3.75000000E-01  1.25000000E-01
                      -3.75000000E-01  5.00000000E-01  1.25000000E-01
                      -2.50000000E-01  5.00000000E-01  2.50000000E-01
            kptgw      0.00000000E+00  0.00000000E+00  0.00000000E+00
                       5.00000000E-01  5.00000000E-01  0.00000000E+00
         kptrlatt        8    0    0      0    8    0      0    0    8
          kptrlen      3.86440077E+01
P           mkmem           1
            natom           2
            nband         480
           ndtset           2
            ngfft          30      30      30
             nkpt          29
           nkptgw           2
           npweps         169
          npwsigx        1139
           npwwfn        1139
            nstep          50
             nsym          24
           ntypat           2
              occ      2.000000  2.000000  2.000000  2.000000  0.000000  0.000000
                       0.000000  0.000000  0.000000  0.000000  0.000000  0.000000
                       0.000000  0.000000  0.000000  0.000000  0.000000  0.000000
                       0.000000  0.000000  0.000000  0.000000  0.000000  0.000000
                       0.000000  0.000000  0.000000  0.000000  0.000000  0.000000
                       0.000000  0.000000  0.000000  0.000000  0.000000  0.000000
                       0.000000  0.000000  0.000000  0.000000  0.000000  0.000000
                       0.000000  0.000000  0.000000  0.000000  0.000000  0.000000
                       0.000000  0.000000  0.000000  0.000000  0.000000  0.000000
                       0.000000  0.000000  0.000000  0.000000  0.000000  0.000000
                       0.000000  0.000000  0.000000  0.000000  0.000000  0.000000
                       0.000000  0.000000  0.000000  0.000000  0.000000  0.000000
                       0.000000  0.000000  0.000000  0.000000  0.000000  0.000000
                       0.000000  0.000000  0.000000  0.000000  0.000000  0.000000
                       0.000000  0.000000  0.000000  0.000000  0.000000  0.000000
                       0.000000  0.000000  0.000000  0.000000  0.000000  0.000000
                       0.000000  0.000000  0.000000  0.000000  0.000000  0.000000
                       0.000000  0.000000  0.000000  0.000000  0.000000  0.000000
                       0.000000  0.000000  0.000000  0.000000  0.000000  0.000000
                       0.000000  0.000000  0.000000  0.000000  0.000000  0.000000
                       0.000000  0.000000  0.000000  0.000000  0.000000  0.000000
                       0.000000  0.000000  0.000000  0.000000  0.000000  0.000000
                       0.000000  0.000000  0.000000  0.000000  0.000000  0.000000
                       0.000000  0.000000  0.000000  0.000000  0.000000  0.000000
                       0.000000  0.000000  0.000000  0.000000  0.000000  0.000000
                       0.000000  0.000000  0.000000  0.000000  0.000000  0.000000
                       0.000000  0.000000  0.000000  0.000000  0.000000  0.000000
                       0.000000  0.000000  0.000000  0.000000  0.000000  0.000000
                       0.000000  0.000000  0.000000  0.000000  0.000000  0.000000
                       0.000000  0.000000  0.000000  0.000000  0.000000  0.000000
                       0.000000  0.000000  0.000000  0.000000  0.000000  0.000000
                       0.000000  0.000000  0.000000  0.000000  0.000000  0.000000
                       0.000000  0.000000  0.000000  0.000000  0.000000  0.000000
                       0.000000  0.000000  0.000000  0.000000  0.000000  0.000000
                       0.000000  0.000000  0.000000  0.000000  0.000000  0.000000
                       0.000000  0.000000  0.000000  0.000000  0.000000  0.000000
                       0.000000  0.000000  0.000000  0.000000  0.000000  0.000000
                       0.000000  0.000000  0.000000  0.000000  0.000000  0.000000
                       0.000000  0.000000  0.000000  0.000000  0.000000  0.000000
                       0.000000  0.000000  0.000000  0.000000  0.000000  0.000000
                       0.000000  0.000000  0.000000  0.000000  0.000000  0.000000
                       0.000000  0.000000  0.000000  0.000000  0.000000  0.000000
                       0.000000  0.000000  0.000000  0.000000  0.000000  0.000000
                       0.000000  0.000000  0.000000  0.000000  0.000000  0.000000
                       0.000000  0.000000  0.000000  0.000000  0.000000  0.000000
                       0.000000  0.000000  0.000000  0.000000  0.000000  0.000000
                       0.000000  0.000000  0.000000  0.000000  0.000000  0.000000
                       0.000000  0.000000  0.000000  0.000000  0.000000  0.000000
                       0.000000  0.000000  0.000000  0.000000  0.000000  0.000000
                       0.000000  0.000000  0.000000  0.000000  0.000000  0.000000
                       0.000000  0.000000  0.000000  0.000000  0.000000  0.000000
                       0.000000  0.000000  0.000000  0.000000  0.000000  0.000000
                       0.000000  0.000000  0.000000  0.000000  0.000000  0.000000
                       0.000000  0.000000  0.000000  0.000000  0.000000  0.000000
                       0.000000  0.000000  0.000000  0.000000  0.000000  0.000000
                       0.000000  0.000000  0.000000  0.000000  0.000000  0.000000
                       0.000000  0.000000  0.000000  0.000000  0.000000  0.000000
                       0.000000  0.000000  0.000000  0.000000  0.000000  0.000000
                       0.000000  0.000000  0.000000  0.000000  0.000000  0.000000
                       0.000000  0.000000  0.000000  0.000000  0.000000  0.000000
                       0.000000  0.000000  0.000000  0.000000  0.000000  0.000000
                       0.000000  0.000000  0.000000  0.000000  0.000000  0.000000
                       0.000000  0.000000  0.000000  0.000000  0.000000  0.000000
                       0.000000  0.000000  0.000000  0.000000  0.000000  0.000000
                       0.000000  0.000000  0.000000  0.000000  0.000000  0.000000
                       0.000000  0.000000  0.000000  0.000000  0.000000  0.000000
                       0.000000  0.000000  0.000000  0.000000  0.000000  0.000000
                       0.000000  0.000000  0.000000  0.000000  0.000000  0.000000
                       0.000000  0.000000  0.000000  0.000000  0.000000  0.000000
                       0.000000  0.000000  0.000000  0.000000  0.000000  0.000000
                       0.000000  0.000000  0.000000  0.000000  0.000000  0.000000
                       0.000000  0.000000  0.000000  0.000000  0.000000  0.000000
                       0.000000  0.000000  0.000000  0.000000  0.000000  0.000000
                       0.000000  0.000000  0.000000  0.000000  0.000000  0.000000
                       0.000000  0.000000  0.000000  0.000000  0.000000  0.000000
                       0.000000  0.000000  0.000000  0.000000  0.000000  0.000000
                       0.000000  0.000000  0.000000  0.000000  0.000000  0.000000
                       0.000000  0.000000  0.000000  0.000000  0.000000  0.000000
                       0.000000  0.000000  0.000000  0.000000  0.000000  0.000000
                       0.000000  0.000000  0.000000  0.000000  0.000000  0.000000
        optdriver1          3
        optdriver2          4
            rprim      0.0000000000E+00  5.0000000000E-01  5.0000000000E-01
                       5.0000000000E-01  0.0000000000E+00  5.0000000000E-01
                       5.0000000000E-01  5.0000000000E-01  0.0000000000E+00
          spgroup         216
           symrel      1  0  0   0  1  0   0  0  1       0 -1  1   0 -1  0   1 -1  0
                      -1  0  0  -1  0  1  -1  1  0       0  1 -1   1  0 -1   0  0 -1
                      -1  0  0  -1  1  0  -1  0  1       0 -1  1   1 -1  0   0 -1  0
                       1  0  0   0  0  1   0  1  0       0  1 -1   0  0 -1   1  0 -1
                      -1  0  1  -1  1  0  -1  0  0       0 -1  0   1 -1  0   0 -1  1
                       1  0 -1   0  0 -1   0  1 -1       0  1  0   0  0  1   1  0  0
                       1  0 -1   0  1 -1   0  0 -1       0 -1  0   0 -1  1   1 -1  0
                      -1  0  1  -1  0  0  -1  1  0       0  1  0   1  0  0   0  0  1
                       0  0 -1   0  1 -1   1  0 -1       1 -1  0   0 -1  1   0 -1  0
                       0  0  1   1  0  0   0  1  0      -1  1  0  -1  0  0  -1  0  1
                       0  0  1   0  1  0   1  0  0       1 -1  0   0 -1  0   0 -1  1
                       0  0 -1   1  0 -1   0  1 -1      -1  1  0  -1  0  1  -1  0  0
           timopt          -1
            typat      1  2
              wtk        0.00195    0.01563    0.01563    0.01563    0.00781    0.01172
                         0.04688    0.04688    0.04688    0.04688    0.04688    0.02344
                         0.01172    0.04688    0.04688    0.04688    0.02344    0.01172
                         0.04688    0.02344    0.00586    0.04688    0.09375    0.04688
                         0.04688    0.09375    0.04688    0.02344    0.01172
           xangst      0.0000000000E+00  0.0000000000E+00  0.0000000000E+00
                       9.0375000000E-01  9.0375000000E-01  9.0375000000E-01
            xcart      0.0000000000E+00  0.0000000000E+00  0.0000000000E+00
                       1.7078399926E+00  1.7078399926E+00  1.7078399926E+00
             xred      0.0000000000E+00  0.0000000000E+00  0.0000000000E+00
                       2.5000000000E-01  2.5000000000E-01  2.5000000000E-01
            znucl        5.00000    7.00000

================================================================================

 chkinp: Checking input parameters for consistency, jdtset=   1.

 chkinp: Checking input parameters for consistency, jdtset=   2.

================================================================================
== DATASET  1 ==================================================================
-   mpi_nproc: 512, omp_nthreads: -1 (-1 if OMP is not activated)


--- !DatasetInfo
iteration_state: {dtset: 1, }
dimensions: {natom: 2, nkpt: 29, mband: 480, nsppol: 1, nspinor: 1, nspden: 1, mpw: 1174, }
cutoff_energies: {ecut:  45.0, pawecutdg:  -1.0, }
electrons: {nelect:   8.00000000E+00, charge:   0.00000000E+00, occopt:   1.00000000E+00, tsmear:   1.00000000E-02, }
meta: {optdriver: 3, gwcalctyp: 0, }
...

 mkfilename: getwfk from: ../outdata_gs_DS2_WFK

 Exchange-correlation functional for the present dataset will be:
  GGA: Perdew-Burke-Ernzerhof functional - ixc=11
 Citation for XC functional:
  J.P.Perdew, K.Burke, M.Ernzerhof, PRL 77, 3865 (1996)

 SCREENING: Calculation of the susceptibility and dielectric matrices 

 Based on a program developped by R.W. Godby, V. Olevano, G. Onida, and L. Reining.
 Incorporated in ABINIT by V. Olevano, G.-M. Rignanese, and M. Torrent.
.Using single precision arithmetic ; gwpc =  4

 Real(R)+Recip(G) space primitive vectors, cartesian coordinates (Bohr,Bohr^-1):
 R(1)=  0.0000000  3.4156800  3.4156800  G(1)= -0.1463837  0.1463837  0.1463837
 R(2)=  3.4156800  0.0000000  3.4156800  G(2)=  0.1463837 -0.1463837  0.1463837
 R(3)=  3.4156800  3.4156800  0.0000000  G(3)=  0.1463837  0.1463837 -0.1463837
 Unit cell volume ucvol=  7.9700587E+01 bohr^3
 Angles (23,13,12)=  6.00000000E+01  6.00000000E+01  6.00000000E+01 degrees

--- Pseudopotential description ------------------------------------------------
- pspini: atom type   1  psp file is ../B.psp8
- pspatm: opening atomic psp file    ../B.psp8
- B     ONCVPSP-3.2.3.1  r_core=   1.20849   1.20849
-  5.00000   3.00000    170503                znucl, zion, pspdat
    8   11    1    4       600   0.00000      pspcod,pspxc,lmax,lloc,mmax,r2well
    5.99000000000000    2.90000000000000    0.00000000000000   rchrg,fchrg,qchrg
     nproj     2     2
     extension_switch     1
  pspatm : epsatm=    3.38844677
         --- l  ekb(1:nproj) -->
             0    8.382104    1.234201
             1   -3.719492   -0.867526
 pspatm: atomic psp has been read  and splines computed

- pspini: atom type   2  psp file is ../N.psp8
- pspatm: opening atomic psp file    ../N.psp8
- N     ONCVPSP-3.2.3.1  r_core=   1.20551   1.35824
-  7.00000   5.00000    170503                znucl, zion, pspdat
    8   11    1    4       600   0.00000      pspcod,pspxc,lmax,lloc,mmax,r2well
    5.99000000000000    4.00000000000000    0.00000000000000   rchrg,fchrg,qchrg
     nproj     2     2
     extension_switch     1
  pspatm : epsatm=    5.20978323
         --- l  ekb(1:nproj) -->
             0    7.494509    0.636305
             1   -4.293905   -1.006988
 pspatm: atomic psp has been read  and splines computed

   6.87858400E+01                                ecore*ucvol(ha*bohr**3)
--------------------------------------------------------------------------------

 ==== K-mesh for the wavefunctions ====
 Number of points in the irreducible wedge :    29
 Reduced coordinates and weights : 

     1)     0.00000000E+00  0.00000000E+00  0.00000000E+00       0.00195
     2)     1.25000000E-01  0.00000000E+00  0.00000000E+00       0.01563
     3)     2.50000000E-01  0.00000000E+00  0.00000000E+00       0.01563
     4)     3.75000000E-01  0.00000000E+00  0.00000000E+00       0.01563
     5)     5.00000000E-01  0.00000000E+00  0.00000000E+00       0.00781
     6)     1.25000000E-01  1.25000000E-01  0.00000000E+00       0.01172
     7)     2.50000000E-01  1.25000000E-01  0.00000000E+00       0.04688
     8)     3.75000000E-01  1.25000000E-01  0.00000000E+00       0.04688
     9)     5.00000000E-01  1.25000000E-01  0.00000000E+00       0.04688
    10)    -3.75000000E-01  1.25000000E-01  0.00000000E+00       0.04688
    11)    -2.50000000E-01  1.25000000E-01  0.00000000E+00       0.04688
    12)    -1.25000000E-01  1.25000000E-01  0.00000000E+00       0.02344
    13)     2.50000000E-01  2.50000000E-01  0.00000000E+00       0.01172
    14)     3.75000000E-01  2.50000000E-01  0.00000000E+00       0.04688
    15)     5.00000000E-01  2.50000000E-01  0.00000000E+00       0.04688
    16)    -3.75000000E-01  2.50000000E-01  0.00000000E+00       0.04688
    17)    -2.50000000E-01  2.50000000E-01  0.00000000E+00       0.02344
    18)     3.75000000E-01  3.75000000E-01  0.00000000E+00       0.01172
    19)     5.00000000E-01  3.75000000E-01  0.00000000E+00       0.04688
    20)    -3.75000000E-01  3.75000000E-01  0.00000000E+00       0.02344
    21)     5.00000000E-01  5.00000000E-01  0.00000000E+00       0.00586
    22)     3.75000000E-01  2.50000000E-01  1.25000000E-01       0.04688
    23)     5.00000000E-01  2.50000000E-01  1.25000000E-01       0.09375
    24)    -3.75000000E-01  2.50000000E-01  1.25000000E-01       0.04688
    25)     5.00000000E-01  3.75000000E-01  1.25000000E-01       0.04688
    26)    -3.75000000E-01  3.75000000E-01  1.25000000E-01       0.09375
    27)    -2.50000000E-01  3.75000000E-01  1.25000000E-01       0.04688
    28)    -3.75000000E-01  5.00000000E-01  1.25000000E-01       0.02344
    29)    -2.50000000E-01  5.00000000E-01  2.50000000E-01       0.01172

 Together with 24 symmetry operations and time-reversal symmetry 
 yields   512 points in the full Brillouin Zone.


 ==== Q-mesh for the screening function ====
 Number of points in the irreducible wedge :    29
 Reduced coordinates and weights : 

     1)     0.00000000E+00  0.00000000E+00  0.00000000E+00       0.00195
     2)     1.25000000E-01  0.00000000E+00  0.00000000E+00       0.01563
     3)     2.50000000E-01  0.00000000E+00  0.00000000E+00       0.01563
     4)     3.75000000E-01  0.00000000E+00  0.00000000E+00       0.01563
     5)     5.00000000E-01  0.00000000E+00  0.00000000E+00       0.00781
     6)     1.25000000E-01  1.25000000E-01  0.00000000E+00       0.01172
     7)     2.50000000E-01  1.25000000E-01  0.00000000E+00       0.04688
     8)     3.75000000E-01  1.25000000E-01  0.00000000E+00       0.04688
     9)     5.00000000E-01  1.25000000E-01  0.00000000E+00       0.04688
    10)    -3.75000000E-01  1.25000000E-01  0.00000000E+00       0.04688
    11)    -2.50000000E-01  1.25000000E-01  0.00000000E+00       0.04688
    12)    -1.25000000E-01  1.25000000E-01  0.00000000E+00       0.02344
    13)     2.50000000E-01  2.50000000E-01  0.00000000E+00       0.01172
    14)     3.75000000E-01  2.50000000E-01  0.00000000E+00       0.04688
    15)     5.00000000E-01  2.50000000E-01  0.00000000E+00       0.04688
    16)    -3.75000000E-01  2.50000000E-01  0.00000000E+00       0.04688
    17)    -2.50000000E-01  2.50000000E-01  0.00000000E+00       0.02344
    18)     3.75000000E-01  3.75000000E-01  0.00000000E+00       0.01172
    19)     5.00000000E-01  3.75000000E-01  0.00000000E+00       0.04688
    20)    -3.75000000E-01  3.75000000E-01  0.00000000E+00       0.02344
    21)     5.00000000E-01  5.00000000E-01  0.00000000E+00       0.00586
    22)     3.75000000E-01  2.50000000E-01  1.25000000E-01       0.04688
    23)     5.00000000E-01  2.50000000E-01  1.25000000E-01       0.09375
    24)    -3.75000000E-01  2.50000000E-01  1.25000000E-01       0.04688
    25)     5.00000000E-01  3.75000000E-01  1.25000000E-01       0.04688
    26)    -3.75000000E-01  3.75000000E-01  1.25000000E-01       0.09375
    27)    -2.50000000E-01  3.75000000E-01  1.25000000E-01       0.04688
    28)    -3.75000000E-01  5.00000000E-01  1.25000000E-01       0.02344
    29)    -2.50000000E-01  5.00000000E-01  2.50000000E-01       0.01172

 Together with 24 symmetry operations and time-reversal symmetry 
 yields   512 points in the full Brillouin Zone.


 setmesh: FFT mesh size selected  =    24x   24x   24
          total number of points  =        13824


- screening: taking advantage of time-reversal symmetry 
- Maximum band index for partially occupied states nbvw = 4
- Remaining bands to be divided among processors   nbcw = 476
- Number of bands treated by each node ~0

 Number of electrons calculated from density =    8.0000; Expected =    8.0000
 average of density, n =  0.100376
 r_s =    1.3348
 omega_plasma =   30.5612 [eV]


 calculating chi0 at frequencies [eV] :
  1    0.000000E+00    0.000000E+00
  2    0.000000E+00    3.056116E+01


--------------------------------------------------------------------------------
  q-point number  1        q = ( 0.000000, 0.000000, 0.000000) [r.l.u.]
--------------------------------------------------------------------------------
  chi0(G,G') at the    1 th omega   0.0000   0.0000 [eV]
       1       2       3       4       5       6       7       8       9
    1  -0.000   0.000  -0.000   0.000  -0.000  -0.000   0.000  -0.000   0.000
       -0.000   0.000  -0.000   0.000  -0.000   0.000  -0.000   0.000  -0.000

    2   0.000  -8.084  -1.459  -1.459  -1.459   0.403   1.199   1.199   1.199
       -0.000   0.000  -0.000  -0.000   0.000  -1.940  -0.892  -0.892  -0.892

  chi0(G,G') at the    2 th omega   0.0000  30.5612 [eV]
       1       2       3       4       5       6       7       8       9
    1  -0.000   0.000  -0.000   0.000  -0.000  -0.000   0.000  -0.000   0.000
        0.000   0.000  -0.000   0.000  -0.000   0.000  -0.000   0.000  -0.000

    2   0.000  -3.948  -0.356  -0.356  -0.356   0.151   0.408   0.408   0.408
       -0.000   0.000  -0.000  -0.000   0.000  -0.457  -0.173  -0.173  -0.173

 For q-point:  0.000010 0.000020 0.000030
  dielectric constant =   4.3104
  dielectric constant without local fields =   4.6615

  Average fulfillment of the sum rule on Im[epsilon] for q-point    1 :    101.34  [%]
  Heads and wings of the symmetrical epsilon^-1(G,G') 

   Upper and lower wings at the    1 th omega   0.0000   0.0000 [eV]
       1       2       3       4       5       6       7       8       9
      0.232   0.002  -0.005   0.005  -0.002  -0.002   0.005  -0.005   0.002
     -0.000   0.013  -0.040   0.040  -0.013   0.013  -0.040   0.040  -0.013
       1       2       3       4       5       6       7       8       9
      0.232   0.002  -0.005   0.005  -0.002  -0.002   0.005  -0.005   0.002
     -0.000  -0.013   0.040  -0.040   0.013  -0.013   0.040  -0.040   0.013


   Upper and lower wings at the    2 th omega   0.0000  30.5612 [eV]
       1       2       3       4       5       6       7       8       9
      0.620   0.002  -0.007   0.007  -0.002  -0.002   0.007  -0.007   0.002
      0.000   0.011  -0.034   0.034  -0.011   0.011  -0.034   0.034  -0.011
       1       2       3       4       5       6       7       8       9
      0.620   0.002  -0.007   0.007  -0.002  -0.002   0.007  -0.007   0.002
      0.000  -0.011   0.034  -0.034   0.011  -0.011   0.034  -0.034   0.011




--------------------------------------------------------------------------------
  q-point number  2        q = ( 0.125000, 0.000000, 0.000000) [r.l.u.]
--------------------------------------------------------------------------------
  chi0(G,G') at the    1 th omega   0.0000   0.0000 [eV]
       1       2       3       4       5       6       7       8       9
    1  -0.830  -0.111  -0.089  -0.089  -0.089   0.030  -0.114  -0.114  -0.114
        0.000  -0.575  -0.046  -0.046  -0.046  -0.586   0.399   0.399   0.399

    2  -0.111  -8.110  -1.517  -1.517  -1.517   0.420   1.282   1.282   1.282
        0.575   0.000   0.058   0.058   0.058  -1.901  -0.832  -0.832  -0.832

  chi0(G,G') at the    2 th omega   0.0000  30.5612 [eV]
       1       2       3       4       5       6       7       8       9
    1  -0.157  -0.043  -0.004  -0.004  -0.004   0.030  -0.026  -0.026  -0.026
        0.000  -0.184   0.018   0.018   0.018  -0.167   0.096   0.096   0.096

    2  -0.043  -4.176  -0.372  -0.372  -0.372   0.149   0.480   0.480   0.480
        0.184   0.000   0.009   0.009   0.009  -0.448  -0.172  -0.172  -0.172

  Average fulfillment of the sum rule on Im[epsilon] for q-point    2 :    101.94  [%]


--------------------------------------------------------------------------------
  q-point number  3        q = ( 0.250000, 0.000000, 0.000000) [r.l.u.]
--------------------------------------------------------------------------------
  chi0(G,G') at the    1 th omega   0.0000   0.0000 [eV]
       1       2       3       4       5       6       7       8       9
    1  -2.602  -0.266  -0.328  -0.328  -0.328   0.017  -0.293  -0.293  -0.293
        0.000  -0.974  -0.474  -0.474  -0.474  -0.991   0.922   0.922   0.922

    2  -0.266  -7.918  -1.447  -1.447  -1.447   0.455   1.296   1.296   1.296
        0.974   0.000   0.074   0.074   0.074  -1.795  -0.720  -0.720  -0.720

  chi0(G,G') at the    2 th omega   0.0000  30.5612 [eV]
       1       2       3       4       5       6       7       8       9
    1  -0.589  -0.094  -0.039  -0.039  -0.039   0.047  -0.075  -0.075  -0.075
        0.000  -0.365  -0.045  -0.045  -0.045  -0.298   0.246   0.246   0.246

    2  -0.094  -4.288  -0.373  -0.373  -0.373   0.144   0.536   0.536   0.536
        0.365   0.000   0.015   0.015   0.015  -0.422  -0.163  -0.163  -0.163

  Average fulfillment of the sum rule on Im[epsilon] for q-point    3 :    101.79  [%]


--------------------------------------------------------------------------------
  q-point number  4        q = ( 0.375000, 0.000000, 0.000000) [r.l.u.]
--------------------------------------------------------------------------------
  chi0(G,G') at the    1 th omega   0.0000   0.0000 [eV]
       1       2       3       4       5       6       7       8       9
    1  -4.323  -0.405  -0.581  -0.581  -0.581   0.007  -0.418  -0.418  -0.418
        0.000  -1.214  -0.994  -0.994  -0.994  -1.197   1.316   1.316   1.316

    2  -0.405  -7.540  -1.268  -1.268  -1.268   0.483   1.270   1.270   1.270
        1.214   0.000   0.064   0.064   0.064  -1.643  -0.587  -0.587  -0.587

  chi0(G,G') at the    2 th omega   0.0000  30.5612 [eV]
       1       2       3       4       5       6       7       8       9
    1  -1.202  -0.148  -0.098  -0.098  -0.098   0.056  -0.132  -0.132  -0.132
        0.000  -0.528  -0.175  -0.175  -0.175  -0.380   0.418   0.418   0.418

    2  -0.148  -4.295  -0.360  -0.360  -0.360   0.132   0.576   0.576   0.576
        0.528   0.000   0.017   0.017   0.017  -0.379  -0.147  -0.147  -0.147

  Average fulfillment of the sum rule on Im[epsilon] for q-point    4 :    101.66  [%]


--------------------------------------------------------------------------------
  q-point number  5        q = ( 0.500000, 0.000000, 0.000000) [r.l.u.]
--------------------------------------------------------------------------------
  chi0(G,G') at the    1 th omega   0.0000   0.0000 [eV]
       1       2       3       4       5       6       7       8       9
    1  -5.657  -0.509  -0.794  -0.794  -0.794   0.004  -0.484  -0.484  -0.484
        0.000  -1.355  -1.443  -1.443  -1.443  -1.257   1.545   1.545   1.545

    2  -0.509  -7.019  -1.043  -1.043  -1.043   0.487   1.225   1.225   1.225
        1.355   0.000   0.048   0.048   0.048  -1.458  -0.466  -0.466  -0.466

  chi0(G,G') at the    2 th omega   0.0000  30.5612 [eV]
       1       2       3       4       5       6       7       8       9
    1  -1.885  -0.197  -0.170  -0.170  -0.170   0.058  -0.189  -0.189  -0.189
        0.000  -0.662  -0.344  -0.344  -0.344  -0.408   0.584   0.584   0.584

    2  -0.197  -4.210  -0.333  -0.333  -0.333   0.114   0.601   0.601   0.601
        0.662   0.000   0.016   0.016   0.016  -0.320  -0.129  -0.129  -0.129

  Average fulfillment of the sum rule on Im[epsilon] for q-point    5 :    101.61  [%]


--------------------------------------------------------------------------------
  q-point number  6        q = ( 0.125000, 0.125000, 0.000000) [r.l.u.]
--------------------------------------------------------------------------------
  chi0(G,G') at the    1 th omega   0.0000   0.0000 [eV]
       1       2       3       4       5       6       7       8       9
    1  -1.102  -0.154  -0.076  -0.076  -0.154  -0.076  -0.154  -0.154  -0.076
        0.000  -0.582   0.140   0.140  -0.582  -0.140   0.582   0.582  -0.140

    2  -0.154  -8.155  -1.471  -1.471  -1.571   0.497   1.303   1.303   1.202
        0.582   0.000   0.065   0.065  -0.000  -1.809  -0.796  -0.796  -0.819

  chi0(G,G') at the    2 th omega   0.0000  30.5612 [eV]
       1       2       3       4       5       6       7       8       9
    1  -0.208  -0.040   0.006   0.006  -0.040   0.006  -0.040  -0.040   0.006
        0.000  -0.155   0.072   0.072  -0.155  -0.072   0.155   0.155  -0.072

    2  -0.040  -4.126  -0.358  -0.358  -0.389   0.159   0.484   0.484   0.414
        0.155   0.000   0.009   0.009  -0.000  -0.440  -0.169  -0.169  -0.166

  Average fulfillment of the sum rule on Im[epsilon] for q-point    6 :    101.92  [%]


--------------------------------------------------------------------------------
  q-point number  7        q = ( 0.250000, 0.125000, 0.000000) [r.l.u.]
--------------------------------------------------------------------------------
  chi0(G,G') at the    1 th omega   0.0000   0.0000 [eV]
       1       2       3       4       5       6       7       8       9
    1  -2.536  -0.274  -0.248  -0.248  -0.343  -0.088  -0.299  -0.299  -0.279
        0.000  -0.994  -0.155  -0.155  -0.868  -0.569   0.978   0.978   0.544

    2  -0.274  -8.007  -1.454  -1.454  -1.507   0.522   1.324   1.324   1.255
        0.994   0.000   0.094   0.094   0.033  -1.731  -0.718  -0.718  -0.714

  chi0(G,G') at the    2 th omega   0.0000  30.5612 [eV]
       1       2       3       4       5       6       7       8       9
    1  -0.545  -0.087  -0.017  -0.017  -0.066   0.026  -0.077  -0.077  -0.044
        0.000  -0.333   0.040   0.040  -0.196  -0.212   0.273   0.273   0.091

    2  -0.087  -4.268  -0.364  -0.364  -0.392   0.155   0.538   0.538   0.486
        0.333   0.000   0.016   0.016   0.007  -0.420  -0.163  -0.163  -0.158

  Average fulfillment of the sum rule on Im[epsilon] for q-point    7 :    101.81  [%]


--------------------------------------------------------------------------------
  q-point number  8        q = ( 0.375000, 0.125000, 0.000000) [r.l.u.]
--------------------------------------------------------------------------------
  chi0(G,G') at the    1 th omega   0.0000   0.0000 [eV]
       1       2       3       4       5       6       7       8       9
    1  -4.212  -0.398  -0.499  -0.499  -0.569  -0.108  -0.425  -0.425  -0.441
        0.000  -1.246  -0.694  -0.694  -1.253  -0.816   1.346   1.346   1.098

    2  -0.398  -7.673  -1.319  -1.319  -1.335   0.546   1.304   1.304   1.245
        1.246   0.000   0.085   0.085   0.041  -1.607  -0.605  -0.605  -0.585

  chi0(G,G') at the    2 th omega   0.0000  30.5612 [eV]
       1       2       3       4       5       6       7       8       9
    1  -1.092  -0.138  -0.068  -0.068  -0.114   0.036  -0.128  -0.128  -0.108
        0.000  -0.496  -0.071  -0.071  -0.295  -0.308   0.421   0.421   0.288

    2  -0.138  -4.303  -0.356  -0.356  -0.380   0.144   0.577   0.577   0.540
        0.496   0.000   0.020   0.020   0.011  -0.383  -0.150  -0.150  -0.145

  Average fulfillment of the sum rule on Im[epsilon] for q-point    8 :    101.68  [%]


--------------------------------------------------------------------------------
  q-point number  9        q = ( 0.500000, 0.125000, 0.000000) [r.l.u.]
--------------------------------------------------------------------------------
  chi0(G,G') at the    1 th omega   0.0000   0.0000 [eV]
       1       2       3       4       5       6       7       8       9
    1  -5.593  -0.498  -0.731  -0.731  -0.765  -0.118  -0.493  -0.493  -0.534
        0.000  -1.388  -1.222  -1.222  -1.605  -0.914   1.578   1.578   1.451

    2  -0.498  -7.189  -1.113  -1.113  -1.107   0.552   1.263   1.263   1.207
        1.388   0.000   0.064   0.064   0.039  -1.447  -0.490  -0.490  -0.460

  chi0(G,G') at the    2 th omega   0.0000  30.5612 [eV]
       1       2       3       4       5       6       7       8       9
    1  -1.742  -0.187  -0.137  -0.137  -0.177   0.040  -0.181  -0.181  -0.172
        0.000  -0.635  -0.234  -0.234  -0.433  -0.353   0.574   0.574   0.485

    2  -0.187  -4.243  -0.333  -0.333  -0.356   0.127   0.604   0.604   0.577
        0.635   0.000   0.019   0.019   0.012  -0.330  -0.134  -0.134  -0.128

  Average fulfillment of the sum rule on Im[epsilon] for q-point    9 :    101.61  [%]


--------------------------------------------------------------------------------
  q-point number 10        q = (-0.375000, 0.125000, 0.000000) [r.l.u.]
--------------------------------------------------------------------------------
  chi0(G,G') at the    1 th omega   0.0000   0.0000 [eV]
       1       2       3       4       5       6       7       8       9
    1  -5.163  -0.118  -0.517  -0.517  -0.436  -0.462  -0.694  -0.694  -0.613
        0.000   0.896  -1.455  -1.455  -1.488   1.342   1.403   1.403   0.760

    2  -0.118  -6.603  -0.968  -0.968  -1.095   0.552   0.815   0.815   0.330
       -0.896   0.000  -0.104  -0.104  -0.155  -1.511  -0.491  -0.491  -0.590

  chi0(G,G') at the    2 th omega   0.0000  30.5612 [eV]
       1       2       3       4       5       6       7       8       9
    1  -1.519   0.039  -0.157  -0.157  -0.165  -0.171  -0.144  -0.144  -0.089
        0.000   0.344  -0.462  -0.462  -0.546   0.592   0.326   0.326   0.079

    2   0.039  -2.399  -0.234  -0.234  -0.253   0.134   0.171   0.171   0.008
       -0.344   0.000  -0.019  -0.019  -0.027  -0.350  -0.095  -0.095  -0.088

  Average fulfillment of the sum rule on Im[epsilon] for q-point   10 :    101.62  [%]


--------------------------------------------------------------------------------
  q-point number 11        q = (-0.250000, 0.125000, 0.000000) [r.l.u.]
--------------------------------------------------------------------------------
  chi0(G,G') at the    1 th omega   0.0000   0.0000 [eV]
       1       2       3       4       5       6       7       8       9
    1  -3.653  -0.106  -0.415  -0.415  -0.354  -0.350  -0.476  -0.476  -0.347
        0.000   0.754  -1.097  -1.097  -1.232   1.169   0.977   0.977   0.124

    2  -0.106  -7.319  -1.102  -1.102  -1.240   0.539   0.970   0.970   0.568
       -0.754   0.000  -0.098  -0.098  -0.149  -1.659  -0.636  -0.636  -0.739

  chi0(G,G') at the    2 th omega   0.0000  30.5612 [eV]
       1       2       3       4       5       6       7       8       9
    1  -0.892   0.033  -0.097  -0.097  -0.114  -0.121  -0.084  -0.084  -0.023
        0.000   0.281  -0.280  -0.280  -0.403   0.444   0.192   0.192  -0.080

    2   0.033  -2.994  -0.275  -0.275  -0.302   0.148   0.254   0.254   0.112
       -0.281   0.000  -0.016  -0.016  -0.024  -0.397  -0.126  -0.126  -0.122

  Average fulfillment of the sum rule on Im[epsilon] for q-point   11 :    101.72  [%]


--------------------------------------------------------------------------------
  q-point number 12        q = (-0.125000, 0.125000, 0.000000) [r.l.u.]
--------------------------------------------------------------------------------
  chi0(G,G') at the    1 th omega   0.0000   0.0000 [eV]
       1       2       3       4       5       6       7       8       9
    1  -1.957  -0.087  -0.249  -0.249  -0.220  -0.220  -0.249  -0.249  -0.087
        0.000   0.443  -0.573  -0.573  -0.867   0.867   0.573   0.573  -0.443

    2  -0.087  -7.809  -1.245  -1.245  -1.388   0.512   1.109   1.109   0.815
       -0.443   0.000  -0.064  -0.064  -0.116  -1.768  -0.753  -0.753  -0.842

  chi0(G,G') at the    2 th omega   0.0000  30.5612 [eV]
       1       2       3       4       5       6       7       8       9
    1  -0.404   0.020  -0.042  -0.042  -0.070  -0.070  -0.042  -0.042   0.020
        0.000   0.169  -0.109  -0.109  -0.274   0.274   0.109   0.109  -0.169

    2   0.020  -3.489  -0.310  -0.310  -0.342   0.157   0.338   0.338   0.220
       -0.169   0.000  -0.009  -0.009  -0.018  -0.428  -0.151  -0.151  -0.148

  Average fulfillment of the sum rule on Im[epsilon] for q-point   12 :    101.85  [%]


--------------------------------------------------------------------------------
  q-point number 13        q = ( 0.250000, 0.250000, 0.000000) [r.l.u.]
--------------------------------------------------------------------------------
  chi0(G,G') at the    1 th omega   0.0000   0.0000 [eV]
       1       2       3       4       5       6       7       8       9
    1  -3.407  -0.394  -0.302  -0.302  -0.394  -0.302  -0.394  -0.394  -0.302
        0.000  -1.196  -0.207  -0.207  -1.196   0.207   1.196   1.196   0.207

    2  -0.394  -8.075  -1.461  -1.461  -1.464   0.693   1.344   1.344   1.203
        1.196   0.000   0.094   0.094  -0.000  -1.505  -0.631  -0.631  -0.644

  chi0(G,G') at the    2 th omega   0.0000  30.5612 [eV]
       1       2       3       4       5       6       7       8       9
    1  -0.770  -0.103  -0.025  -0.025  -0.103  -0.025  -0.103  -0.103  -0.025
        0.000  -0.354   0.043   0.043  -0.354  -0.043   0.354   0.354  -0.043

    2  -0.103  -4.253  -0.361  -0.361  -0.397   0.179   0.547   0.547   0.428
        0.354   0.000   0.017   0.017  -0.000  -0.391  -0.153  -0.153  -0.144

  Average fulfillment of the sum rule on Im[epsilon] for q-point   13 :    101.75  [%]


--------------------------------------------------------------------------------
  q-point number 14        q = ( 0.375000, 0.250000, 0.000000) [r.l.u.]
--------------------------------------------------------------------------------
  chi0(G,G') at the    1 th omega   0.0000   0.0000 [eV]
       1       2       3       4       5       6       7       8       9
    1  -4.718  -0.460  -0.478  -0.478  -0.569  -0.340  -0.495  -0.495  -0.486
        0.000  -1.410  -0.604  -0.604  -1.457  -0.027   1.460   1.460   0.910

    2  -0.460  -7.759  -1.357  -1.357  -1.325   0.702   1.331   1.331   1.219
        1.410   0.000   0.101   0.101   0.021  -1.421  -0.559  -0.559  -0.533

  chi0(G,G') at the    2 th omega   0.0000  30.5612 [eV]
       1       2       3       4       5       6       7       8       9
    1  -1.211  -0.146  -0.063  -0.063  -0.140  -0.015  -0.143  -0.143  -0.092
        0.000  -0.505  -0.036  -0.036  -0.426  -0.143   0.471   0.471   0.171

    2  -0.146  -4.306  -0.354  -0.354  -0.388   0.169   0.584   0.584   0.497
        0.505   0.000   0.021   0.021   0.005  -0.361  -0.145  -0.145  -0.134

  Average fulfillment of the sum rule on Im[epsilon] for q-point   14 :    101.66  [%]


--------------------------------------------------------------------------------
  q-point number 15        q = ( 0.500000, 0.250000, 0.000000) [r.l.u.]
--------------------------------------------------------------------------------
  chi0(G,G') at the    1 th omega   0.0000   0.0000 [eV]
       1       2       3       4       5       6       7       8       9
    1  -5.971  -0.525  -0.698  -0.698  -0.741  -0.372  -0.556  -0.556  -0.604
        0.000  -1.521  -1.130  -1.130  -1.715  -0.148   1.667   1.667   1.387

    2  -0.525  -7.306  -1.172  -1.172  -1.123   0.695   1.295   1.295   1.190
        1.521   0.000   0.083   0.083   0.032  -1.306  -0.470  -0.470  -0.421

  chi0(G,G') at the    2 th omega   0.0000  30.5612 [eV]
       1       2       3       4       5       6       7       8       9
    1  -1.782  -0.190  -0.122  -0.122  -0.191  -0.012  -0.188  -0.188  -0.162
        0.000  -0.637  -0.178  -0.178  -0.533  -0.200   0.599   0.599   0.391

    2  -0.190  -4.264  -0.333  -0.333  -0.366   0.153   0.608   0.608   0.545
        0.637   0.000   0.021   0.021   0.007  -0.317  -0.131  -0.131  -0.119

  Average fulfillment of the sum rule on Im[epsilon] for q-point   15 :    101.60  [%]


--------------------------------------------------------------------------------
  q-point number 16        q = (-0.375000, 0.250000, 0.000000) [r.l.u.]
--------------------------------------------------------------------------------
  chi0(G,G') at the    1 th omega   0.0000   0.0000 [eV]
       1       2       3       4       5       6       7       8       9
    1  -6.252  -0.384  -0.673  -0.673  -0.480  -0.509  -0.781  -0.781  -0.641
        0.000   0.169  -1.714  -1.714  -1.568   1.501   1.752   1.752   0.628

    2  -0.384  -6.922  -1.063  -1.063  -1.053   0.683   0.964   0.964  -0.032
       -0.169   0.000  -0.071  -0.071  -0.126  -1.299  -0.307  -0.307  -0.461

  chi0(G,G') at the    2 th omega   0.0000  30.5612 [eV]
       1       2       3       4       5       6       7       8       9
    1  -1.980  -0.012  -0.198  -0.198  -0.200  -0.201  -0.197  -0.197  -0.085
        0.000   0.208  -0.547  -0.547  -0.661   0.674   0.495   0.495   0.018

    2  -0.012  -2.389  -0.244  -0.244  -0.244   0.145   0.225   0.225  -0.114
       -0.208   0.000  -0.015  -0.015  -0.028  -0.301  -0.070  -0.070  -0.059

  Average fulfillment of the sum rule on Im[epsilon] for q-point   16 :    101.59  [%]


--------------------------------------------------------------------------------
  q-point number 17        q = (-0.250000, 0.250000, 0.000000) [r.l.u.]
--------------------------------------------------------------------------------
  chi0(G,G') at the    1 th omega   0.0000   0.0000 [eV]
       1       2       3       4       5       6       7       8       9
    1  -5.059  -0.373  -0.603  -0.603  -0.437  -0.437  -0.603  -0.603  -0.373
        0.000   0.088  -1.424  -1.424  -1.413   1.413   1.424   1.424  -0.088

    2  -0.373  -7.572  -1.173  -1.173  -1.193   0.697   1.090   1.090   0.260
       -0.088   0.000  -0.070  -0.070  -0.128  -1.429  -0.444  -0.444  -0.630

  chi0(G,G') at the    2 th omega   0.0000  30.5612 [eV]
       1       2       3       4       5       6       7       8       9
    1  -1.387  -0.015  -0.140  -0.140  -0.159  -0.159  -0.140  -0.140  -0.015
        0.000   0.167  -0.369  -0.369  -0.549   0.549   0.369   0.369  -0.167

    2  -0.015  -2.959  -0.280  -0.280  -0.298   0.164   0.296   0.296  -0.008
       -0.167   0.000  -0.014  -0.014  -0.027  -0.350  -0.100  -0.100  -0.093

  Average fulfillment of the sum rule on Im[epsilon] for q-point   17 :    101.64  [%]


--------------------------------------------------------------------------------
  q-point number 18        q = ( 0.375000, 0.375000, 0.000000) [r.l.u.]
--------------------------------------------------------------------------------
  chi0(G,G') at the    1 th omega   0.0000   0.0000 [eV]
       1       2       3       4       5       6       7       8       9
    1  -5.533  -0.569  -0.542  -0.542  -0.569  -0.542  -0.569  -0.569  -0.542
        0.000  -1.598  -0.760  -0.760  -1.598   0.760   1.598   1.598   0.760

    2  -0.569  -7.790  -1.376  -1.376  -1.232   0.860   1.333   1.333   1.184
        1.598   0.000   0.097   0.097  -0.000  -1.170  -0.477  -0.477  -0.444

  chi0(G,G') at the    2 th omega   0.0000  30.5612 [eV]
       1       2       3       4       5       6       7       8       9
    1  -1.534  -0.172  -0.085  -0.085  -0.172  -0.085  -0.172  -0.172  -0.085
        0.000  -0.554  -0.077  -0.077  -0.554   0.077   0.554   0.554   0.077

    2  -0.172  -4.308  -0.358  -0.358  -0.382   0.202   0.593   0.593   0.447
        0.554   0.000   0.021   0.021  -0.000  -0.319  -0.131  -0.131  -0.115

  Average fulfillment of the sum rule on Im[epsilon] for q-point   18 :    101.62  [%]


--------------------------------------------------------------------------------
  q-point number 19        q = ( 0.500000, 0.375000, 0.000000) [r.l.u.]
--------------------------------------------------------------------------------
  chi0(G,G') at the    1 th omega   0.0000   0.0000 [eV]
       1       2       3       4       5       6       7       8       9
    1  -6.470  -0.578  -0.696  -0.696  -0.703  -0.601  -0.618  -0.618  -0.677
        0.000  -1.673  -1.142  -1.142  -1.775   0.651   1.739   1.739   1.346

    2  -0.578  -7.355  -1.206  -1.206  -1.082   0.837   1.307   1.307   1.171
        1.673   0.000   0.096   0.096   0.020  -1.098  -0.422  -0.422  -0.354

  chi0(G,G') at the    2 th omega   0.0000  30.5612 [eV]
       1       2       3       4       5       6       7       8       9
    1  -1.996  -0.206  -0.130  -0.130  -0.211  -0.083  -0.207  -0.207  -0.159
        0.000  -0.669  -0.186  -0.186  -0.634   0.017   0.654   0.654   0.312

    2  -0.206  -4.276  -0.335  -0.335  -0.364   0.185   0.615   0.615   0.508
        0.669   0.000   0.023   0.023   0.003  -0.283  -0.122  -0.122  -0.104

  Average fulfillment of the sum rule on Im[epsilon] for q-point   19 :    101.58  [%]


--------------------------------------------------------------------------------
  q-point number 20        q = (-0.375000, 0.375000, 0.000000) [r.l.u.]
--------------------------------------------------------------------------------
  chi0(G,G') at the    1 th omega   0.0000   0.0000 [eV]
       1       2       3       4       5       6       7       8       9
    1  -7.129  -0.640  -0.820  -0.820  -0.523  -0.523  -0.820  -0.820  -0.640
        0.000  -0.600  -1.968  -1.968  -1.590   1.590   1.968   1.968   0.600

    2  -0.640  -7.294  -1.226  -1.226  -0.904   0.770   1.065   1.065  -0.362
        0.600   0.000  -0.047  -0.047  -0.078  -1.075  -0.156  -0.156  -0.272

  chi0(G,G') at the    2 th omega   0.0000  30.5612 [eV]
       1       2       3       4       5       6       7       8       9
    1  -2.502  -0.084  -0.248  -0.248  -0.232  -0.232  -0.248  -0.248  -0.084
        0.000   0.004  -0.657  -0.657  -0.759   0.759   0.657   0.657  -0.004

    2  -0.084  -2.516  -0.277  -0.277  -0.224   0.158   0.291   0.291  -0.211
       -0.004   0.000  -0.010  -0.010  -0.024  -0.240  -0.042  -0.042  -0.029

  Average fulfillment of the sum rule on Im[epsilon] for q-point   20 :    101.58  [%]


--------------------------------------------------------------------------------
  q-point number 21        q = ( 0.500000, 0.500000, 0.000000) [r.l.u.]
--------------------------------------------------------------------------------
  chi0(G,G') at the    1 th omega   0.0000   0.0000 [eV]
       1       2       3       4       5       6       7       8       9
    1  -7.023  -0.658  -0.757  -0.757  -0.658  -0.757  -0.658  -0.658  -0.757
        0.000  -1.802  -1.297  -1.297  -1.802   1.297   1.802   1.802   1.297

    2  -0.658  -7.346  -1.215  -1.215  -0.990   0.932   1.298   1.298   1.131
        1.802   0.000   0.095   0.095  -0.000  -0.868  -0.358  -0.358  -0.264

  chi0(G,G') at the    2 th omega   0.0000  30.5612 [eV]
       1       2       3       4       5       6       7       8       9
    1  -2.340  -0.234  -0.160  -0.160  -0.234  -0.160  -0.234  -0.234  -0.160
        0.000  -0.727  -0.256  -0.256  -0.727   0.256   0.727   0.727   0.256

    2  -0.234  -4.281  -0.343  -0.343  -0.351   0.216   0.622   0.622   0.466
        0.727   0.000   0.022   0.022  -0.000  -0.236  -0.107  -0.107  -0.084

  Average fulfillment of the sum rule on Im[epsilon] for q-point   21 :    101.58  [%]


--------------------------------------------------------------------------------
  q-point number 22        q = ( 0.375000, 0.250000, 0.125000) [r.l.u.]
--------------------------------------------------------------------------------
  chi0(G,G') at the    1 th omega   0.0000   0.0000 [eV]
       1       2       3       4       5       6       7       8       9
    1  -3.887  -0.384  -0.437  -0.276  -0.477  -0.276  -0.477  -0.384  -0.437
        0.000  -1.266  -0.830   0.160  -1.251  -0.160   1.251   1.266   0.830

    2  -0.384  -7.886  -1.439  -1.327  -1.422   0.651   1.330   1.325   1.257
        1.266   0.000   0.073   0.128   0.026  -1.537  -0.594  -0.643  -0.596

  chi0(G,G') at the    2 th omega   0.0000  30.5612 [eV]
       1       2       3       4       5       6       7       8       9
    1  -0.935  -0.122  -0.075  -0.003  -0.109  -0.003  -0.109  -0.122  -0.075
        0.000  -0.434  -0.147   0.157  -0.330  -0.157   0.330   0.434   0.147

    2  -0.122  -4.296  -0.382  -0.329  -0.393   0.167   0.548   0.577   0.495
        0.434   0.000   0.014   0.023   0.006  -0.385  -0.147  -0.156  -0.143

  Average fulfillment of the sum rule on Im[epsilon] for q-point   22 :    101.71  [%]


--------------------------------------------------------------------------------
  q-point number 23        q = ( 0.500000, 0.250000, 0.125000) [r.l.u.]
--------------------------------------------------------------------------------
  chi0(G,G') at the    1 th omega   0.0000   0.0000 [eV]
       1       2       3       4       5       6       7       8       9
    1  -5.312  -0.470  -0.645  -0.536  -0.671  -0.301  -0.573  -0.464  -0.568
        0.000  -1.427  -1.267  -0.484  -1.564  -0.330   1.567   1.509   1.328

    2  -0.470  -7.488  -1.249  -1.206  -1.227   0.658   1.299   1.297   1.233
        1.427   0.000   0.068   0.104   0.036  -1.425  -0.499  -0.545  -0.483

  chi0(G,G') at the    2 th omega   0.0000  30.5612 [eV]
       1       2       3       4       5       6       7       8       9
    1  -1.491  -0.168  -0.128  -0.060  -0.159   0.003  -0.161  -0.165  -0.141
        0.000  -0.579  -0.263   0.020  -0.434  -0.232   0.485   0.556   0.353

    2  -0.168  -4.289  -0.364  -0.317  -0.375   0.153   0.584   0.604   0.546
        0.579   0.000   0.017   0.025   0.009  -0.345  -0.135  -0.143  -0.130

  Average fulfillment of the sum rule on Im[epsilon] for q-point   23 :    101.63  [%]


--------------------------------------------------------------------------------
  q-point number 24        q = (-0.375000, 0.250000, 0.125000) [r.l.u.]
--------------------------------------------------------------------------------
  chi0(G,G') at the    1 th omega   0.0000   0.0000 [eV]
       1       2       3       4       5       6       7       8       9
    1  -6.434  -0.311  -0.619  -0.639  -0.499  -0.539  -0.833  -0.835  -0.774
        0.000   0.381  -1.757  -1.633  -1.641   1.507   1.670   1.839   1.093

    2  -0.311  -6.434  -1.099  -0.768  -1.046   0.639   0.719   0.905   0.115
       -0.381   0.000  -0.107  -0.047  -0.135  -1.273  -0.275  -0.316  -0.364

  chi0(G,G') at the    2 th omega   0.0000  30.5612 [eV]
       1       2       3       4       5       6       7       8       9
    1  -2.114   0.005  -0.212  -0.204  -0.209  -0.211  -0.193  -0.219  -0.134
        0.000   0.257  -0.636  -0.549  -0.678   0.699   0.416   0.564   0.169

    2   0.005  -2.114  -0.238  -0.195  -0.227   0.132   0.108   0.221  -0.082
       -0.257   0.000  -0.021  -0.011  -0.027  -0.290  -0.052  -0.073  -0.049

  Average fulfillment of the sum rule on Im[epsilon] for q-point   24 :    101.59  [%]


--------------------------------------------------------------------------------
  q-point number 25        q = ( 0.500000, 0.375000, 0.125000) [r.l.u.]
--------------------------------------------------------------------------------
  chi0(G,G') at the    1 th omega   0.0000   0.0000 [eV]
       1       2       3       4       5       6       7       8       9
    1  -5.809  -0.526  -0.629  -0.526  -0.646  -0.526  -0.646  -0.526  -0.629
        0.000  -1.584  -1.227  -0.448  -1.674   0.448   1.674   1.584   1.227

    2  -0.526  -7.555  -1.276  -1.248  -1.197   0.807   1.322   1.311   1.214
        1.584   0.000   0.082   0.117   0.021  -1.230  -0.454  -0.496  -0.424

  chi0(G,G') at the    2 th omega   0.0000  30.5612 [eV]
       1       2       3       4       5       6       7       8       9
    1  -1.662  -0.181  -0.133  -0.058  -0.181  -0.058  -0.181  -0.181  -0.133
        0.000  -0.601  -0.258   0.042  -0.547  -0.042   0.547   0.601   0.258

    2  -0.181  -4.298  -0.368  -0.313  -0.377   0.181   0.593   0.609   0.506
        0.601   0.000   0.018   0.025   0.004  -0.317  -0.126  -0.136  -0.116

  Average fulfillment of the sum rule on Im[epsilon] for q-point   25 :    101.61  [%]


--------------------------------------------------------------------------------
  q-point number 26        q = (-0.375000, 0.375000, 0.125000) [r.l.u.]
--------------------------------------------------------------------------------
  chi0(G,G') at the    1 th omega   0.0000   0.0000 [eV]
       1       2       3       4       5       6       7       8       9
    1  -7.251  -0.560  -0.759  -0.776  -0.522  -0.554  -0.885  -0.871  -0.790
        0.000  -0.373  -1.959  -1.899  -1.647   1.601   1.966   2.026   1.047

    2  -0.560  -6.807  -1.207  -0.946  -0.925   0.724   0.911   1.001  -0.239
        0.373   0.000  -0.073  -0.023  -0.095  -1.058  -0.108  -0.169  -0.186

  chi0(G,G') at the    2 th omega   0.0000  30.5612 [eV]
       1       2       3       4       5       6       7       8       9
    1  -2.569  -0.056  -0.253  -0.247  -0.237  -0.237  -0.248  -0.261  -0.133
        0.000   0.079  -0.723  -0.644  -0.768   0.771   0.595   0.698   0.139

    2  -0.056  -2.203  -0.261  -0.220  -0.208   0.142   0.190   0.274  -0.186
       -0.079   0.000  -0.016  -0.005  -0.025  -0.235  -0.025  -0.051  -0.021

  Average fulfillment of the sum rule on Im[epsilon] for q-point   26 :    101.58  [%]


--------------------------------------------------------------------------------
  q-point number 27        q = (-0.250000, 0.375000, 0.125000) [r.l.u.]
--------------------------------------------------------------------------------
  chi0(G,G') at the    1 th omega   0.0000   0.0000 [eV]
       1       2       3       4       5       6       7       8       9
    1  -6.423  -0.563  -0.736  -0.736  -0.513  -0.513  -0.736  -0.736  -0.563
        0.000  -0.382  -1.815  -1.667  -1.580   1.580   1.667   1.815   0.382

    2  -0.563  -7.528  -1.316  -1.011  -1.082   0.786   1.035   1.119   0.055
        0.382   0.000  -0.081  -0.034  -0.107  -1.207  -0.235  -0.296  -0.384

  chi0(G,G') at the    2 th omega   0.0000  30.5612 [eV]
       1       2       3       4       5       6       7       8       9
    1  -2.012  -0.057  -0.208  -0.190  -0.203  -0.203  -0.190  -0.208  -0.057
        0.000   0.072  -0.583  -0.462  -0.674   0.674   0.462   0.583  -0.072

    2  -0.057  -2.754  -0.302  -0.246  -0.268   0.168   0.253   0.330  -0.100
       -0.072   0.000  -0.017  -0.008  -0.026  -0.290  -0.055  -0.078  -0.052

  Average fulfillment of the sum rule on Im[epsilon] for q-point   27 :    101.59  [%]


--------------------------------------------------------------------------------
  q-point number 28        q = (-0.375000, 0.500000, 0.125000) [r.l.u.]
--------------------------------------------------------------------------------
  chi0(G,G') at the    1 th omega   0.0000   0.0000 [eV]
       1       2       3       4       5       6       7       8       9
    1  -7.798  -0.760  -0.870  -0.892  -0.545  -0.545  -0.892  -0.870  -0.760
        0.000  -1.072  -2.122  -2.118  -1.637   1.637   2.118   2.122   1.072

    2  -0.760  -7.201  -1.332  -1.182  -0.714   0.724   1.037   1.061  -0.519
        1.072   0.000  -0.046   0.000  -0.047  -0.825   0.000  -0.065  -0.000

  chi0(G,G') at the    2 th omega   0.0000  30.5612 [eV]
       1       2       3       4       5       6       7       8       9
    1  -3.036  -0.131  -0.298  -0.295  -0.261  -0.261  -0.295  -0.298  -0.131
        0.000  -0.144  -0.819  -0.754  -0.841   0.841   0.754   0.819   0.144

    2  -0.131  -2.431  -0.298  -0.267  -0.183   0.150   0.277   0.334  -0.252
        0.144   0.000  -0.011   0.000  -0.020  -0.174   0.000  -0.029   0.000

  Average fulfillment of the sum rule on Im[epsilon] for q-point   28 :    101.58  [%]


--------------------------------------------------------------------------------
  q-point number 29        q = (-0.250000, 0.500000, 0.250000) [r.l.u.]
--------------------------------------------------------------------------------
  chi0(G,G') at the    1 th omega   0.0000   0.0000 [eV]
       1       2       3       4       5       6       7       8       9
    1  -7.537  -0.772  -0.813  -0.857  -0.568  -0.568  -0.857  -0.813  -0.772
        0.000  -1.004  -2.010  -1.936  -1.701   1.701   1.936   2.010   1.004

    2  -0.772  -7.537  -1.332  -0.948  -0.942   0.831   1.012   1.089   0.003
        1.004   0.000  -0.078   0.000  -0.085  -0.926  -0.000  -0.146  -0.000

  chi0(G,G') at the    2 th omega   0.0000  30.5612 [eV]
       1       2       3       4       5       6       7       8       9
    1  -2.681  -0.121  -0.267  -0.250  -0.246  -0.246  -0.250  -0.267  -0.121
        0.000  -0.104  -0.763  -0.590  -0.790   0.790   0.590   0.763   0.104

    2  -0.121  -2.681  -0.313  -0.233  -0.236   0.169   0.237   0.367  -0.133
        0.104   0.000  -0.019  -0.000  -0.024  -0.214  -0.000  -0.055  -0.000

  Average fulfillment of the sum rule on Im[epsilon] for q-point   29 :    101.57  [%]

================================================================================
== DATASET  2 ==================================================================
-   mpi_nproc: 512, omp_nthreads: -1 (-1 if OMP is not activated)


--- !DatasetInfo
iteration_state: {dtset: 2, }
dimensions: {natom: 2, nkpt: 29, mband: 480, nsppol: 1, nspinor: 1, nspden: 1, mpw: 1174, }
cutoff_energies: {ecut:  45.0, pawecutdg:  -1.0, }
electrons: {nelect:   8.00000000E+00, charge:   0.00000000E+00, occopt:   1.00000000E+00, tsmear:   1.00000000E-02, }
meta: {optdriver: 4, gwcalctyp: 0, }
...

 mkfilename: getwfk from: ../outdata_gs_DS2_WFK

 mkfilename : getscr/=0, take file _SCR from output of DATASET   1.

 Exchange-correlation functional for the present dataset will be:
  GGA: Perdew-Burke-Ernzerhof functional - ixc=11
 Citation for XC functional:
  J.P.Perdew, K.Burke, M.Ernzerhof, PRL 77, 3865 (1996)

 SIGMA: Calculation of the GW corrections 

 Based on a program developped by R.W. Godby, V. Olevano, G. Onida, and L. Reining.
 Incorporated in ABINIT by V. Olevano, G.-M. Rignanese, and M. Torrent.
.Using single precision arithmetic ; gwpc =  4

 Real(R)+Recip(G) space primitive vectors, cartesian coordinates (Bohr,Bohr^-1):
 R(1)=  0.0000000  3.4156800  3.4156800  G(1)= -0.1463837  0.1463837  0.1463837
 R(2)=  3.4156800  0.0000000  3.4156800  G(2)=  0.1463837 -0.1463837  0.1463837
 R(3)=  3.4156800  3.4156800  0.0000000  G(3)=  0.1463837  0.1463837 -0.1463837
 Unit cell volume ucvol=  7.9700587E+01 bohr^3
 Angles (23,13,12)=  6.00000000E+01  6.00000000E+01  6.00000000E+01 degrees
--------------------------------------------------------------------------------

 ==== K-mesh for the wavefunctions ====
 Number of points in the irreducible wedge :    29
 Reduced coordinates and weights : 

     1)     0.00000000E+00  0.00000000E+00  0.00000000E+00       0.00195
     2)     1.25000000E-01  0.00000000E+00  0.00000000E+00       0.01563
     3)     2.50000000E-01  0.00000000E+00  0.00000000E+00       0.01563
     4)     3.75000000E-01  0.00000000E+00  0.00000000E+00       0.01563
     5)     5.00000000E-01  0.00000000E+00  0.00000000E+00       0.00781
     6)     1.25000000E-01  1.25000000E-01  0.00000000E+00       0.01172
     7)     2.50000000E-01  1.25000000E-01  0.00000000E+00       0.04688
     8)     3.75000000E-01  1.25000000E-01  0.00000000E+00       0.04688
     9)     5.00000000E-01  1.25000000E-01  0.00000000E+00       0.04688
    10)    -3.75000000E-01  1.25000000E-01  0.00000000E+00       0.04688
    11)    -2.50000000E-01  1.25000000E-01  0.00000000E+00       0.04688
    12)    -1.25000000E-01  1.25000000E-01  0.00000000E+00       0.02344
    13)     2.50000000E-01  2.50000000E-01  0.00000000E+00       0.01172
    14)     3.75000000E-01  2.50000000E-01  0.00000000E+00       0.04688
    15)     5.00000000E-01  2.50000000E-01  0.00000000E+00       0.04688
    16)    -3.75000000E-01  2.50000000E-01  0.00000000E+00       0.04688
    17)    -2.50000000E-01  2.50000000E-01  0.00000000E+00       0.02344
    18)     3.75000000E-01  3.75000000E-01  0.00000000E+00       0.01172
    19)     5.00000000E-01  3.75000000E-01  0.00000000E+00       0.04688
    20)    -3.75000000E-01  3.75000000E-01  0.00000000E+00       0.02344
    21)     5.00000000E-01  5.00000000E-01  0.00000000E+00       0.00586
    22)     3.75000000E-01  2.50000000E-01  1.25000000E-01       0.04688
    23)     5.00000000E-01  2.50000000E-01  1.25000000E-01       0.09375
    24)    -3.75000000E-01  2.50000000E-01  1.25000000E-01       0.04688
    25)     5.00000000E-01  3.75000000E-01  1.25000000E-01       0.04688
    26)    -3.75000000E-01  3.75000000E-01  1.25000000E-01       0.09375
    27)    -2.50000000E-01  3.75000000E-01  1.25000000E-01       0.04688
    28)    -3.75000000E-01  5.00000000E-01  1.25000000E-01       0.02344
    29)    -2.50000000E-01  5.00000000E-01  2.50000000E-01       0.01172

 Together with 24 symmetry operations and time-reversal symmetry 
 yields   512 points in the full Brillouin Zone.


 ==== Q-mesh for screening function ====
 Number of points in the irreducible wedge :    29
 Reduced coordinates and weights : 

     1)     0.00000000E+00  0.00000000E+00  0.00000000E+00       0.00195
     2)     1.25000000E-01  0.00000000E+00  0.00000000E+00       0.01563
     3)     2.50000000E-01  0.00000000E+00  0.00000000E+00       0.01563
     4)     3.75000000E-01  0.00000000E+00  0.00000000E+00       0.01563
     5)     5.00000000E-01  0.00000000E+00  0.00000000E+00       0.00781
     6)     1.25000000E-01  1.25000000E-01  0.00000000E+00       0.01172
     7)     2.50000000E-01  1.25000000E-01  0.00000000E+00       0.04688
     8)     3.75000000E-01  1.25000000E-01  0.00000000E+00       0.04688
     9)     5.00000000E-01  1.25000000E-01  0.00000000E+00       0.04688
    10)    -3.75000000E-01  1.25000000E-01  0.00000000E+00       0.04688
    11)    -2.50000000E-01  1.25000000E-01  0.00000000E+00       0.04688
    12)    -1.25000000E-01  1.25000000E-01  0.00000000E+00       0.02344
    13)     2.50000000E-01  2.50000000E-01  0.00000000E+00       0.01172
    14)     3.75000000E-01  2.50000000E-01  0.00000000E+00       0.04688
    15)     5.00000000E-01  2.50000000E-01  0.00000000E+00       0.04688
    16)    -3.75000000E-01  2.50000000E-01  0.00000000E+00       0.04688
    17)    -2.50000000E-01  2.50000000E-01  0.00000000E+00       0.02344
    18)     3.75000000E-01  3.75000000E-01  0.00000000E+00       0.01172
    19)     5.00000000E-01  3.75000000E-01  0.00000000E+00       0.04688
    20)    -3.75000000E-01  3.75000000E-01  0.00000000E+00       0.02344
    21)     5.00000000E-01  5.00000000E-01  0.00000000E+00       0.00586
    22)     3.75000000E-01  2.50000000E-01  1.25000000E-01       0.04688
    23)     5.00000000E-01  2.50000000E-01  1.25000000E-01       0.09375
    24)    -3.75000000E-01  2.50000000E-01  1.25000000E-01       0.04688
    25)     5.00000000E-01  3.75000000E-01  1.25000000E-01       0.04688
    26)    -3.75000000E-01  3.75000000E-01  1.25000000E-01       0.09375
    27)    -2.50000000E-01  3.75000000E-01  1.25000000E-01       0.04688
    28)    -3.75000000E-01  5.00000000E-01  1.25000000E-01       0.02344
    29)    -2.50000000E-01  5.00000000E-01  2.50000000E-01       0.01172

 Together with 24 symmetry operations and time-reversal symmetry 
 yields   512 points in the full Brillouin Zone.


 setmesh: FFT mesh size selected  =    30x   30x   30
          total number of points  =        27000


--- !ERROR
src_file: m_sigma_driver.F90
src_line: 403
mpi_rank: 0
message: |
    The number of MPI procs:512 is greater than nband:480
...

