
.Version 9.9.2 of ABINIT 
.(MPI version, prepared for a x86_64_linux_gnu11.2 computer) 

.Copyright (C) 1998-2022 ABINIT group . 
 ABINIT comes with ABSOLUTELY NO WARRANTY.
 It is free software, and you are welcome to redistribute it
 under certain conditions (GNU General Public License,
 see ~abinit/COPYING or http://www.gnu.org/copyleft/gpl.txt).

 ABINIT is a project of the Universite Catholique de Louvain,
 Corning Inc. and other collaborators, see ~abinit/doc/developers/contributors.txt .
 Please read https://docs.abinit.org/theory/acknowledgments for suggested
 acknowledgments of the ABINIT effort.
 For more information, see https://www.abinit.org .

.Starting date : Fri 17 Feb 2023.
- ( at 02h30 )
  
- input  file    -> run.abi
- output file    -> run.abo
- root for input  files -> ../indata_ac
- root for output files -> outdata_ac


 DATASET    1 : space group F-4 3 m (#216); Bravais cF (face-center cubic)
================================================================================
 Values of the parameters that define the memory need for DATASET  1.
     intxc =       0    ionmov =       0      iscf =       7    lmnmax =       4
     lnmax =       4     mgfft =      30  mpssoang =       2    mqgrid =    3001
     natom =       2  nloc_mem =       1    nspden =       1   nspinor =       1
    nsppol =       1      nsym =      24    n1xccc =    2501    ntypat =       2
    occopt =       1   xclevel =       2
-    mband =         480        mffmem =           1         mkmem =           1
       mpw =        1174          nfft =       27000          nkpt =          29
================================================================================
P This job should need less than                      25.614 Mbytes of memory.
  Rough estimation (10% accuracy) of disk space for files :
_ WF disk file :    249.362 Mbytes ; DEN or POT disk file :      0.208 Mbytes.
================================================================================


 DATASET    2 : space group F-4 3 m (#216); Bravais cF (face-center cubic)
================================================================================
 Values of the parameters that define the memory need for DATASET  2.
     intxc =       0    ionmov =       0      iscf =       7    lmnmax =       4
     lnmax =       4     mgfft =      30  mpssoang =       2    mqgrid =    3001
     natom =       2  nloc_mem =       1    nspden =       1   nspinor =       1
    nsppol =       1      nsym =      24    n1xccc =    2501    ntypat =       2
    occopt =       1   xclevel =       2
-    mband =         480        mffmem =           1         mkmem =           1
       mpw =        1174          nfft =       27000          nkpt =          29
================================================================================
P This job should need less than                      25.614 Mbytes of memory.
  Rough estimation (10% accuracy) of disk space for files :
_ WF disk file :    249.362 Mbytes ; DEN or POT disk file :      0.208 Mbytes.
================================================================================

--------------------------------------------------------------------------------
------------- Echo of variables that govern the present computation ------------
--------------------------------------------------------------------------------
-
- outvars: echo of selected default values                                      
-   iomode0 =  0 , fftalg0 =312 , wfoptalg0 =  0
-
- outvars: echo of global parameters not present in the input file              
-  max_nthreads =    0
-
 -outvars: echo values of preprocessed input variables --------
            acell      6.8313599704E+00  6.8313599704E+00  6.8313599704E+00 Bohr
              amu      1.08110000E+01  1.40067400E+01
             bdgw           1       8       1       8
           diemac      1.20000000E+01
             ecut      4.50000000E+01 Hartree
          ecuteps      1.20000000E+01 Hartree
         ecutsigx      4.50000000E+01 Hartree
          ecutwfn      4.50000000E+01 Hartree
-          fftalg         312
           getscr1          0
           getscr2         -1
           istwfk        1    0    0    0    1    0    0    0    0    0
                         0    0    0    0    0    0    0    0    0    0
                         1    0    0    0    0    0    0    0    0
              ixc          11
           jdtset        1    2
              kpt      0.00000000E+00  0.00000000E+00  0.00000000E+00
                       1.25000000E-01  0.00000000E+00  0.00000000E+00
                       2.50000000E-01  0.00000000E+00  0.00000000E+00
                       3.75000000E-01  0.00000000E+00  0.00000000E+00
                       5.00000000E-01  0.00000000E+00  0.00000000E+00
                       1.25000000E-01  1.25000000E-01  0.00000000E+00
                       2.50000000E-01  1.25000000E-01  0.00000000E+00
                       3.75000000E-01  1.25000000E-01  0.00000000E+00
                       5.00000000E-01  1.25000000E-01  0.00000000E+00
                      -3.75000000E-01  1.25000000E-01  0.00000000E+00
                      -2.50000000E-01  1.25000000E-01  0.00000000E+00
                      -1.25000000E-01  1.25000000E-01  0.00000000E+00
                       2.50000000E-01  2.50000000E-01  0.00000000E+00
                       3.75000000E-01  2.50000000E-01  0.00000000E+00
                       5.00000000E-01  2.50000000E-01  0.00000000E+00
                      -3.75000000E-01  2.50000000E-01  0.00000000E+00
                      -2.50000000E-01  2.50000000E-01  0.00000000E+00
                       3.75000000E-01  3.75000000E-01  0.00000000E+00
                       5.00000000E-01  3.75000000E-01  0.00000000E+00
                      -3.75000000E-01  3.75000000E-01  0.00000000E+00
                       5.00000000E-01  5.00000000E-01  0.00000000E+00
                       3.75000000E-01  2.50000000E-01  1.25000000E-01
                       5.00000000E-01  2.50000000E-01  1.25000000E-01
                      -3.75000000E-01  2.50000000E-01  1.25000000E-01
                       5.00000000E-01  3.75000000E-01  1.25000000E-01
                      -3.75000000E-01  3.75000000E-01  1.25000000E-01
                      -2.50000000E-01  3.75000000E-01  1.25000000E-01
                      -3.75000000E-01  5.00000000E-01  1.25000000E-01
                      -2.50000000E-01  5.00000000E-01  2.50000000E-01
            kptgw      0.00000000E+00  0.00000000E+00  0.00000000E+00
                       5.00000000E-01  5.00000000E-01  0.00000000E+00
         kptrlatt        8    0    0      0    8    0      0    0    8
          kptrlen      3.86440077E+01
P           mkmem           1
            natom           2
            nband         480
           ndtset           2
            ngfft          30      30      30
             nkpt          29
           nkptgw           2
           npweps         169
          npwsigx        1139
           npwwfn        1139
            nstep          50
             nsym          24
           ntypat           2
              occ      2.000000  2.000000  2.000000  2.000000  0.000000  0.000000
                       0.000000  0.000000  0.000000  0.000000  0.000000  0.000000
                       0.000000  0.000000  0.000000  0.000000  0.000000  0.000000
                       0.000000  0.000000  0.000000  0.000000  0.000000  0.000000
                       0.000000  0.000000  0.000000  0.000000  0.000000  0.000000
                       0.000000  0.000000  0.000000  0.000000  0.000000  0.000000
                       0.000000  0.000000  0.000000  0.000000  0.000000  0.000000
                       0.000000  0.000000  0.000000  0.000000  0.000000  0.000000
                       0.000000  0.000000  0.000000  0.000000  0.000000  0.000000
                       0.000000  0.000000  0.000000  0.000000  0.000000  0.000000
                       0.000000  0.000000  0.000000  0.000000  0.000000  0.000000
                       0.000000  0.000000  0.000000  0.000000  0.000000  0.000000
                       0.000000  0.000000  0.000000  0.000000  0.000000  0.000000
                       0.000000  0.000000  0.000000  0.000000  0.000000  0.000000
                       0.000000  0.000000  0.000000  0.000000  0.000000  0.000000
                       0.000000  0.000000  0.000000  0.000000  0.000000  0.000000
                       0.000000  0.000000  0.000000  0.000000  0.000000  0.000000
                       0.000000  0.000000  0.000000  0.000000  0.000000  0.000000
                       0.000000  0.000000  0.000000  0.000000  0.000000  0.000000
                       0.000000  0.000000  0.000000  0.000000  0.000000  0.000000
                       0.000000  0.000000  0.000000  0.000000  0.000000  0.000000
                       0.000000  0.000000  0.000000  0.000000  0.000000  0.000000
                       0.000000  0.000000  0.000000  0.000000  0.000000  0.000000
                       0.000000  0.000000  0.000000  0.000000  0.000000  0.000000
                       0.000000  0.000000  0.000000  0.000000  0.000000  0.000000
                       0.000000  0.000000  0.000000  0.000000  0.000000  0.000000
                       0.000000  0.000000  0.000000  0.000000  0.000000  0.000000
                       0.000000  0.000000  0.000000  0.000000  0.000000  0.000000
                       0.000000  0.000000  0.000000  0.000000  0.000000  0.000000
                       0.000000  0.000000  0.000000  0.000000  0.000000  0.000000
                       0.000000  0.000000  0.000000  0.000000  0.000000  0.000000
                       0.000000  0.000000  0.000000  0.000000  0.000000  0.000000
                       0.000000  0.000000  0.000000  0.000000  0.000000  0.000000
                       0.000000  0.000000  0.000000  0.000000  0.000000  0.000000
                       0.000000  0.000000  0.000000  0.000000  0.000000  0.000000
                       0.000000  0.000000  0.000000  0.000000  0.000000  0.000000
                       0.000000  0.000000  0.000000  0.000000  0.000000  0.000000
                       0.000000  0.000000  0.000000  0.000000  0.000000  0.000000
                       0.000000  0.000000  0.000000  0.000000  0.000000  0.000000
                       0.000000  0.000000  0.000000  0.000000  0.000000  0.000000
                       0.000000  0.000000  0.000000  0.000000  0.000000  0.000000
                       0.000000  0.000000  0.000000  0.000000  0.000000  0.000000
                       0.000000  0.000000  0.000000  0.000000  0.000000  0.000000
                       0.000000  0.000000  0.000000  0.000000  0.000000  0.000000
                       0.000000  0.000000  0.000000  0.000000  0.000000  0.000000
                       0.000000  0.000000  0.000000  0.000000  0.000000  0.000000
                       0.000000  0.000000  0.000000  0.000000  0.000000  0.000000
                       0.000000  0.000000  0.000000  0.000000  0.000000  0.000000
                       0.000000  0.000000  0.000000  0.000000  0.000000  0.000000
                       0.000000  0.000000  0.000000  0.000000  0.000000  0.000000
                       0.000000  0.000000  0.000000  0.000000  0.000000  0.000000
                       0.000000  0.000000  0.000000  0.000000  0.000000  0.000000
                       0.000000  0.000000  0.000000  0.000000  0.000000  0.000000
                       0.000000  0.000000  0.000000  0.000000  0.000000  0.000000
                       0.000000  0.000000  0.000000  0.000000  0.000000  0.000000
                       0.000000  0.000000  0.000000  0.000000  0.000000  0.000000
                       0.000000  0.000000  0.000000  0.000000  0.000000  0.000000
                       0.000000  0.000000  0.000000  0.000000  0.000000  0.000000
                       0.000000  0.000000  0.000000  0.000000  0.000000  0.000000
                       0.000000  0.000000  0.000000  0.000000  0.000000  0.000000
                       0.000000  0.000000  0.000000  0.000000  0.000000  0.000000
                       0.000000  0.000000  0.000000  0.000000  0.000000  0.000000
                       0.000000  0.000000  0.000000  0.000000  0.000000  0.000000
                       0.000000  0.000000  0.000000  0.000000  0.000000  0.000000
                       0.000000  0.000000  0.000000  0.000000  0.000000  0.000000
                       0.000000  0.000000  0.000000  0.000000  0.000000  0.000000
                       0.000000  0.000000  0.000000  0.000000  0.000000  0.000000
                       0.000000  0.000000  0.000000  0.000000  0.000000  0.000000
                       0.000000  0.000000  0.000000  0.000000  0.000000  0.000000
                       0.000000  0.000000  0.000000  0.000000  0.000000  0.000000
                       0.000000  0.000000  0.000000  0.000000  0.000000  0.000000
                       0.000000  0.000000  0.000000  0.000000  0.000000  0.000000
                       0.000000  0.000000  0.000000  0.000000  0.000000  0.000000
                       0.000000  0.000000  0.000000  0.000000  0.000000  0.000000
                       0.000000  0.000000  0.000000  0.000000  0.000000  0.000000
                       0.000000  0.000000  0.000000  0.000000  0.000000  0.000000
                       0.000000  0.000000  0.000000  0.000000  0.000000  0.000000
                       0.000000  0.000000  0.000000  0.000000  0.000000  0.000000
                       0.000000  0.000000  0.000000  0.000000  0.000000  0.000000
                       0.000000  0.000000  0.000000  0.000000  0.000000  0.000000
        optdriver1          3
        optdriver2          4
            rprim      0.0000000000E+00  5.0000000000E-01  5.0000000000E-01
                       5.0000000000E-01  0.0000000000E+00  5.0000000000E-01
                       5.0000000000E-01  5.0000000000E-01  0.0000000000E+00
          spgroup         216
           symrel      1  0  0   0  1  0   0  0  1       0 -1  1   0 -1  0   1 -1  0
                      -1  0  0  -1  0  1  -1  1  0       0  1 -1   1  0 -1   0  0 -1
                      -1  0  0  -1  1  0  -1  0  1       0 -1  1   1 -1  0   0 -1  0
                       1  0  0   0  0  1   0  1  0       0  1 -1   0  0 -1   1  0 -1
                      -1  0  1  -1  1  0  -1  0  0       0 -1  0   1 -1  0   0 -1  1
                       1  0 -1   0  0 -1   0  1 -1       0  1  0   0  0  1   1  0  0
                       1  0 -1   0  1 -1   0  0 -1       0 -1  0   0 -1  1   1 -1  0
                      -1  0  1  -1  0  0  -1  1  0       0  1  0   1  0  0   0  0  1
                       0  0 -1   0  1 -1   1  0 -1       1 -1  0   0 -1  1   0 -1  0
                       0  0  1   1  0  0   0  1  0      -1  1  0  -1  0  0  -1  0  1
                       0  0  1   0  1  0   1  0  0       1 -1  0   0 -1  0   0 -1  1
                       0  0 -1   1  0 -1   0  1 -1      -1  1  0  -1  0  1  -1  0  0
           timopt          -1
            typat      1  2
              wtk        0.00195    0.01563    0.01563    0.01563    0.00781    0.01172
                         0.04688    0.04688    0.04688    0.04688    0.04688    0.02344
                         0.01172    0.04688    0.04688    0.04688    0.02344    0.01172
                         0.04688    0.02344    0.00586    0.04688    0.09375    0.04688
                         0.04688    0.09375    0.04688    0.02344    0.01172
           xangst      0.0000000000E+00  0.0000000000E+00  0.0000000000E+00
                       9.0375000000E-01  9.0375000000E-01  9.0375000000E-01
            xcart      0.0000000000E+00  0.0000000000E+00  0.0000000000E+00
                       1.7078399926E+00  1.7078399926E+00  1.7078399926E+00
             xred      0.0000000000E+00  0.0000000000E+00  0.0000000000E+00
                       2.5000000000E-01  2.5000000000E-01  2.5000000000E-01
            znucl        5.00000    7.00000

================================================================================

 chkinp: Checking input parameters for consistency, jdtset=   1.

 chkinp: Checking input parameters for consistency, jdtset=   2.

================================================================================
== DATASET  1 ==================================================================
-   mpi_nproc: 256, omp_nthreads: -1 (-1 if OMP is not activated)


--- !DatasetInfo
iteration_state: {dtset: 1, }
dimensions: {natom: 2, nkpt: 29, mband: 480, nsppol: 1, nspinor: 1, nspden: 1, mpw: 1174, }
cutoff_energies: {ecut:  45.0, pawecutdg:  -1.0, }
electrons: {nelect:   8.00000000E+00, charge:   0.00000000E+00, occopt:   1.00000000E+00, tsmear:   1.00000000E-02, }
meta: {optdriver: 3, gwcalctyp: 0, }
...

 mkfilename: getwfk from: ../outdata_gs_DS2_WFK

 Exchange-correlation functional for the present dataset will be:
  GGA: Perdew-Burke-Ernzerhof functional - ixc=11
 Citation for XC functional:
  J.P.Perdew, K.Burke, M.Ernzerhof, PRL 77, 3865 (1996)

 SCREENING: Calculation of the susceptibility and dielectric matrices 

 Based on a program developped by R.W. Godby, V. Olevano, G. Onida, and L. Reining.
 Incorporated in ABINIT by V. Olevano, G.-M. Rignanese, and M. Torrent.
.Using single precision arithmetic ; gwpc =  4

 Real(R)+Recip(G) space primitive vectors, cartesian coordinates (Bohr,Bohr^-1):
 R(1)=  0.0000000  3.4156800  3.4156800  G(1)= -0.1463837  0.1463837  0.1463837
 R(2)=  3.4156800  0.0000000  3.4156800  G(2)=  0.1463837 -0.1463837  0.1463837
 R(3)=  3.4156800  3.4156800  0.0000000  G(3)=  0.1463837  0.1463837 -0.1463837
 Unit cell volume ucvol=  7.9700587E+01 bohr^3
 Angles (23,13,12)=  6.00000000E+01  6.00000000E+01  6.00000000E+01 degrees

--- Pseudopotential description ------------------------------------------------
- pspini: atom type   1  psp file is ../B.psp8
- pspatm: opening atomic psp file    ../B.psp8
- B     ONCVPSP-3.2.3.1  r_core=   1.20849   1.20849
-  5.00000   3.00000    170503                znucl, zion, pspdat
    8   11    1    4       600   0.00000      pspcod,pspxc,lmax,lloc,mmax,r2well
    5.99000000000000    2.90000000000000    0.00000000000000   rchrg,fchrg,qchrg
     nproj     2     2
     extension_switch     1
  pspatm : epsatm=    3.38844677
         --- l  ekb(1:nproj) -->
             0    8.382104    1.234201
             1   -3.719492   -0.867526
 pspatm: atomic psp has been read  and splines computed

- pspini: atom type   2  psp file is ../N.psp8
- pspatm: opening atomic psp file    ../N.psp8
- N     ONCVPSP-3.2.3.1  r_core=   1.20551   1.35824
-  7.00000   5.00000    170503                znucl, zion, pspdat
    8   11    1    4       600   0.00000      pspcod,pspxc,lmax,lloc,mmax,r2well
    5.99000000000000    4.00000000000000    0.00000000000000   rchrg,fchrg,qchrg
     nproj     2     2
     extension_switch     1
  pspatm : epsatm=    5.20978323
         --- l  ekb(1:nproj) -->
             0    7.494509    0.636305
             1   -4.293905   -1.006988
 pspatm: atomic psp has been read  and splines computed

   6.87858400E+01                                ecore*ucvol(ha*bohr**3)
--------------------------------------------------------------------------------

 ==== K-mesh for the wavefunctions ====
 Number of points in the irreducible wedge :    29
 Reduced coordinates and weights : 

     1)     0.00000000E+00  0.00000000E+00  0.00000000E+00       0.00195
     2)     1.25000000E-01  0.00000000E+00  0.00000000E+00       0.01563
     3)     2.50000000E-01  0.00000000E+00  0.00000000E+00       0.01563
     4)     3.75000000E-01  0.00000000E+00  0.00000000E+00       0.01563
     5)     5.00000000E-01  0.00000000E+00  0.00000000E+00       0.00781
     6)     1.25000000E-01  1.25000000E-01  0.00000000E+00       0.01172
     7)     2.50000000E-01  1.25000000E-01  0.00000000E+00       0.04688
     8)     3.75000000E-01  1.25000000E-01  0.00000000E+00       0.04688
     9)     5.00000000E-01  1.25000000E-01  0.00000000E+00       0.04688
    10)    -3.75000000E-01  1.25000000E-01  0.00000000E+00       0.04688
    11)    -2.50000000E-01  1.25000000E-01  0.00000000E+00       0.04688
    12)    -1.25000000E-01  1.25000000E-01  0.00000000E+00       0.02344
    13)     2.50000000E-01  2.50000000E-01  0.00000000E+00       0.01172
    14)     3.75000000E-01  2.50000000E-01  0.00000000E+00       0.04688
    15)     5.00000000E-01  2.50000000E-01  0.00000000E+00       0.04688
    16)    -3.75000000E-01  2.50000000E-01  0.00000000E+00       0.04688
    17)    -2.50000000E-01  2.50000000E-01  0.00000000E+00       0.02344
    18)     3.75000000E-01  3.75000000E-01  0.00000000E+00       0.01172
    19)     5.00000000E-01  3.75000000E-01  0.00000000E+00       0.04688
    20)    -3.75000000E-01  3.75000000E-01  0.00000000E+00       0.02344
    21)     5.00000000E-01  5.00000000E-01  0.00000000E+00       0.00586
    22)     3.75000000E-01  2.50000000E-01  1.25000000E-01       0.04688
    23)     5.00000000E-01  2.50000000E-01  1.25000000E-01       0.09375
    24)    -3.75000000E-01  2.50000000E-01  1.25000000E-01       0.04688
    25)     5.00000000E-01  3.75000000E-01  1.25000000E-01       0.04688
    26)    -3.75000000E-01  3.75000000E-01  1.25000000E-01       0.09375
    27)    -2.50000000E-01  3.75000000E-01  1.25000000E-01       0.04688
    28)    -3.75000000E-01  5.00000000E-01  1.25000000E-01       0.02344
    29)    -2.50000000E-01  5.00000000E-01  2.50000000E-01       0.01172

 Together with 24 symmetry operations and time-reversal symmetry 
 yields   512 points in the full Brillouin Zone.


 ==== Q-mesh for the screening function ====
 Number of points in the irreducible wedge :    29
 Reduced coordinates and weights : 

     1)     0.00000000E+00  0.00000000E+00  0.00000000E+00       0.00195
     2)     1.25000000E-01  0.00000000E+00  0.00000000E+00       0.01563
     3)     2.50000000E-01  0.00000000E+00  0.00000000E+00       0.01563
     4)     3.75000000E-01  0.00000000E+00  0.00000000E+00       0.01563
     5)     5.00000000E-01  0.00000000E+00  0.00000000E+00       0.00781
     6)     1.25000000E-01  1.25000000E-01  0.00000000E+00       0.01172
     7)     2.50000000E-01  1.25000000E-01  0.00000000E+00       0.04688
     8)     3.75000000E-01  1.25000000E-01  0.00000000E+00       0.04688
     9)     5.00000000E-01  1.25000000E-01  0.00000000E+00       0.04688
    10)    -3.75000000E-01  1.25000000E-01  0.00000000E+00       0.04688
    11)    -2.50000000E-01  1.25000000E-01  0.00000000E+00       0.04688
    12)    -1.25000000E-01  1.25000000E-01  0.00000000E+00       0.02344
    13)     2.50000000E-01  2.50000000E-01  0.00000000E+00       0.01172
    14)     3.75000000E-01  2.50000000E-01  0.00000000E+00       0.04688
    15)     5.00000000E-01  2.50000000E-01  0.00000000E+00       0.04688
    16)    -3.75000000E-01  2.50000000E-01  0.00000000E+00       0.04688
    17)    -2.50000000E-01  2.50000000E-01  0.00000000E+00       0.02344
    18)     3.75000000E-01  3.75000000E-01  0.00000000E+00       0.01172
    19)     5.00000000E-01  3.75000000E-01  0.00000000E+00       0.04688
    20)    -3.75000000E-01  3.75000000E-01  0.00000000E+00       0.02344
    21)     5.00000000E-01  5.00000000E-01  0.00000000E+00       0.00586
    22)     3.75000000E-01  2.50000000E-01  1.25000000E-01       0.04688
    23)     5.00000000E-01  2.50000000E-01  1.25000000E-01       0.09375
    24)    -3.75000000E-01  2.50000000E-01  1.25000000E-01       0.04688
    25)     5.00000000E-01  3.75000000E-01  1.25000000E-01       0.04688
    26)    -3.75000000E-01  3.75000000E-01  1.25000000E-01       0.09375
    27)    -2.50000000E-01  3.75000000E-01  1.25000000E-01       0.04688
    28)    -3.75000000E-01  5.00000000E-01  1.25000000E-01       0.02344
    29)    -2.50000000E-01  5.00000000E-01  2.50000000E-01       0.01172

 Together with 24 symmetry operations and time-reversal symmetry 
 yields   512 points in the full Brillouin Zone.


 setmesh: FFT mesh size selected  =    24x   24x   24
          total number of points  =        13824


- screening: taking advantage of time-reversal symmetry 
- Maximum band index for partially occupied states nbvw = 4
- Remaining bands to be divided among processors   nbcw = 476
- Number of bands treated by each node ~1

 Number of electrons calculated from density =    8.0000; Expected =    8.0000
 average of density, n =  0.100376
 r_s =    1.3348
 omega_plasma =   30.5612 [eV]


 calculating chi0 at frequencies [eV] :
  1    0.000000E+00    0.000000E+00
  2    0.000000E+00    3.056116E+01


--------------------------------------------------------------------------------
  q-point number  1        q = ( 0.000000, 0.000000, 0.000000) [r.l.u.]
--------------------------------------------------------------------------------
  chi0(G,G') at the    1 th omega   0.0000   0.0000 [eV]
       1       2       3       4       5       6       7       8       9
    1  -0.000   0.000  -0.000   0.000  -0.000  -0.000   0.000  -0.000   0.000
       -0.000   0.000  -0.000   0.000  -0.000   0.000  -0.000   0.000  -0.000

    2   0.000  -8.084  -1.459  -1.459  -1.459   0.403   1.199   1.199   1.199
       -0.000   0.000  -0.000  -0.000   0.000  -1.940  -0.892  -0.892  -0.892

  chi0(G,G') at the    2 th omega   0.0000  30.5612 [eV]
       1       2       3       4       5       6       7       8       9
    1  -0.000   0.000  -0.000   0.000  -0.000  -0.000   0.000  -0.000   0.000
        0.000   0.000  -0.000   0.000  -0.000   0.000  -0.000   0.000  -0.000

    2   0.000  -3.948  -0.356  -0.356  -0.356   0.151   0.408   0.408   0.408
       -0.000   0.000  -0.000  -0.000   0.000  -0.457  -0.173  -0.173  -0.173

 For q-point:  0.000010 0.000020 0.000030
  dielectric constant =   4.3104
  dielectric constant without local fields =   4.6615

  Average fulfillment of the sum rule on Im[epsilon] for q-point    1 :    101.34  [%]
  Heads and wings of the symmetrical epsilon^-1(G,G') 

   Upper and lower wings at the    1 th omega   0.0000   0.0000 [eV]
       1       2       3       4       5       6       7       8       9
      0.232   0.002  -0.005   0.005  -0.002  -0.002   0.005  -0.005   0.002
      0.000   0.013  -0.040   0.040  -0.013   0.013  -0.040   0.040  -0.013
       1       2       3       4       5       6       7       8       9
      0.232   0.002  -0.005   0.005  -0.002  -0.002   0.005  -0.005   0.002
      0.000  -0.013   0.040  -0.040   0.013  -0.013   0.040  -0.040   0.013


   Upper and lower wings at the    2 th omega   0.0000  30.5612 [eV]
       1       2       3       4       5       6       7       8       9
      0.620   0.002  -0.007   0.007  -0.002  -0.002   0.007  -0.007   0.002
      0.000   0.011  -0.034   0.034  -0.011   0.011  -0.034   0.034  -0.011
       1       2       3       4       5       6       7       8       9
      0.620   0.002  -0.007   0.007  -0.002  -0.002   0.007  -0.007   0.002
      0.000  -0.011   0.034  -0.034   0.011  -0.011   0.034  -0.034   0.011




--------------------------------------------------------------------------------
  q-point number  2        q = ( 0.125000, 0.000000, 0.000000) [r.l.u.]
--------------------------------------------------------------------------------
  chi0(G,G') at the    1 th omega   0.0000   0.0000 [eV]
       1       2       3       4       5       6       7       8       9
    1  -0.830  -0.111  -0.089  -0.089  -0.089   0.030  -0.114  -0.114  -0.114
        0.000  -0.575  -0.046  -0.046  -0.046  -0.586   0.399   0.399   0.399

    2  -0.111  -8.110  -1.517  -1.517  -1.517   0.420   1.282   1.282   1.282
        0.575   0.000   0.058   0.058   0.058  -1.901  -0.832  -0.832  -0.832

  chi0(G,G') at the    2 th omega   0.0000  30.5612 [eV]
       1       2       3       4       5       6       7       8       9
    1  -0.157  -0.043  -0.004  -0.004  -0.004   0.030  -0.026  -0.026  -0.026
        0.000  -0.184   0.018   0.018   0.018  -0.167   0.096   0.096   0.096

    2  -0.043  -4.176  -0.372  -0.372  -0.372   0.149   0.480   0.480   0.480
        0.184   0.000   0.009   0.009   0.009  -0.448  -0.172  -0.172  -0.172

  Average fulfillment of the sum rule on Im[epsilon] for q-point    2 :    101.94  [%]


--------------------------------------------------------------------------------
  q-point number  3        q = ( 0.250000, 0.000000, 0.000000) [r.l.u.]
--------------------------------------------------------------------------------
  chi0(G,G') at the    1 th omega   0.0000   0.0000 [eV]
       1       2       3       4       5       6       7       8       9
    1  -2.602  -0.266  -0.328  -0.328  -0.328   0.017  -0.293  -0.293  -0.293
        0.000  -0.974  -0.474  -0.474  -0.474  -0.991   0.922   0.922   0.922

    2  -0.266  -7.918  -1.447  -1.447  -1.447   0.455   1.296   1.296   1.296
        0.974   0.000   0.074   0.074   0.074  -1.795  -0.720  -0.720  -0.720

  chi0(G,G') at the    2 th omega   0.0000  30.5612 [eV]
       1       2       3       4       5       6       7       8       9
    1  -0.589  -0.094  -0.039  -0.039  -0.039   0.047  -0.075  -0.075  -0.075
        0.000  -0.365  -0.045  -0.045  -0.045  -0.298   0.246   0.246   0.246

    2  -0.094  -4.288  -0.373  -0.373  -0.373   0.144   0.536   0.536   0.536
        0.365   0.000   0.015   0.015   0.015  -0.422  -0.163  -0.163  -0.163

  Average fulfillment of the sum rule on Im[epsilon] for q-point    3 :    101.79  [%]


--------------------------------------------------------------------------------
  q-point number  4        q = ( 0.375000, 0.000000, 0.000000) [r.l.u.]
--------------------------------------------------------------------------------
  chi0(G,G') at the    1 th omega   0.0000   0.0000 [eV]
       1       2       3       4       5       6       7       8       9
    1  -4.323  -0.405  -0.581  -0.581  -0.581   0.007  -0.418  -0.418  -0.418
        0.000  -1.214  -0.994  -0.994  -0.994  -1.197   1.316   1.316   1.316

    2  -0.405  -7.540  -1.268  -1.268  -1.268   0.483   1.270   1.270   1.270
        1.214   0.000   0.064   0.064   0.064  -1.643  -0.587  -0.587  -0.587

  chi0(G,G') at the    2 th omega   0.0000  30.5612 [eV]
       1       2       3       4       5       6       7       8       9
    1  -1.202  -0.148  -0.098  -0.098  -0.098   0.056  -0.132  -0.132  -0.132
        0.000  -0.528  -0.175  -0.175  -0.175  -0.380   0.418   0.418   0.418

    2  -0.148  -4.295  -0.360  -0.360  -0.360   0.132   0.576   0.576   0.576
        0.528   0.000   0.017   0.017   0.017  -0.379  -0.147  -0.147  -0.147

  Average fulfillment of the sum rule on Im[epsilon] for q-point    4 :    101.66  [%]


--------------------------------------------------------------------------------
  q-point number  5        q = ( 0.500000, 0.000000, 0.000000) [r.l.u.]
--------------------------------------------------------------------------------
  chi0(G,G') at the    1 th omega   0.0000   0.0000 [eV]
       1       2       3       4       5       6       7       8       9
    1  -5.657  -0.509  -0.794  -0.794  -0.794   0.004  -0.484  -0.484  -0.484
        0.000  -1.355  -1.443  -1.443  -1.443  -1.257   1.545   1.545   1.545

    2  -0.509  -7.019  -1.043  -1.043  -1.043   0.487   1.225   1.225   1.225
        1.355   0.000   0.048   0.048   0.048  -1.458  -0.466  -0.466  -0.466

  chi0(G,G') at the    2 th omega   0.0000  30.5612 [eV]
       1       2       3       4       5       6       7       8       9
    1  -1.885  -0.197  -0.170  -0.170  -0.170   0.058  -0.189  -0.189  -0.189
        0.000  -0.662  -0.344  -0.344  -0.344  -0.408   0.584   0.584   0.584

    2  -0.197  -4.210  -0.333  -0.333  -0.333   0.114   0.601   0.601   0.601
        0.662   0.000   0.016   0.016   0.016  -0.320  -0.129  -0.129  -0.129

  Average fulfillment of the sum rule on Im[epsilon] for q-point    5 :    101.61  [%]


--------------------------------------------------------------------------------
  q-point number  6        q = ( 0.125000, 0.125000, 0.000000) [r.l.u.]
--------------------------------------------------------------------------------
  chi0(G,G') at the    1 th omega   0.0000   0.0000 [eV]
       1       2       3       4       5       6       7       8       9
    1  -1.102  -0.154  -0.076  -0.076  -0.154  -0.076  -0.154  -0.154  -0.076
        0.000  -0.582   0.140   0.140  -0.582  -0.140   0.582   0.582  -0.140

    2  -0.154  -8.155  -1.471  -1.471  -1.571   0.497   1.303   1.303   1.202
        0.582   0.000   0.065   0.065  -0.000  -1.809  -0.796  -0.796  -0.819

  chi0(G,G') at the    2 th omega   0.0000  30.5612 [eV]
       1       2       3       4       5       6       7       8       9
    1  -0.208  -0.040   0.006   0.006  -0.040   0.006  -0.040  -0.040   0.006
        0.000  -0.155   0.072   0.072  -0.155  -0.072   0.155   0.155  -0.072

    2  -0.040  -4.126  -0.358  -0.358  -0.389   0.159   0.484   0.484   0.414
        0.155   0.000   0.009   0.009  -0.000  -0.440  -0.169  -0.169  -0.166

  Average fulfillment of the sum rule on Im[epsilon] for q-point    6 :    101.92  [%]


--------------------------------------------------------------------------------
  q-point number  7        q = ( 0.250000, 0.125000, 0.000000) [r.l.u.]
--------------------------------------------------------------------------------
  chi0(G,G') at the    1 th omega   0.0000   0.0000 [eV]
       1       2       3       4       5       6       7       8       9
    1  -2.536  -0.274  -0.248  -0.248  -0.343  -0.088  -0.299  -0.299  -0.279
        0.000  -0.994  -0.155  -0.155  -0.868  -0.569   0.978   0.978   0.544

    2  -0.274  -8.007  -1.454  -1.454  -1.507   0.522   1.324   1.324   1.255
        0.994   0.000   0.094   0.094   0.033  -1.731  -0.718  -0.718  -0.714

  chi0(G,G') at the    2 th omega   0.0000  30.5612 [eV]
       1       2       3       4       5       6       7       8       9
    1  -0.545  -0.087  -0.017  -0.017  -0.066   0.026  -0.077  -0.077  -0.044
        0.000  -0.333   0.040   0.040  -0.196  -0.212   0.273   0.273   0.091

    2  -0.087  -4.268  -0.364  -0.364  -0.392   0.155   0.538   0.538   0.486
        0.333   0.000   0.016   0.016   0.007  -0.420  -0.163  -0.163  -0.158

  Average fulfillment of the sum rule on Im[epsilon] for q-point    7 :    101.81  [%]


--------------------------------------------------------------------------------
  q-point number  8        q = ( 0.375000, 0.125000, 0.000000) [r.l.u.]
--------------------------------------------------------------------------------
  chi0(G,G') at the    1 th omega   0.0000   0.0000 [eV]
       1       2       3       4       5       6       7       8       9
    1  -4.212  -0.398  -0.499  -0.499  -0.569  -0.108  -0.425  -0.425  -0.441
        0.000  -1.246  -0.694  -0.694  -1.253  -0.816   1.346   1.346   1.098

    2  -0.398  -7.673  -1.319  -1.319  -1.335   0.546   1.304   1.304   1.245
        1.246   0.000   0.085   0.085   0.041  -1.607  -0.605  -0.605  -0.585

  chi0(G,G') at the    2 th omega   0.0000  30.5612 [eV]
       1       2       3       4       5       6       7       8       9
    1  -1.092  -0.138  -0.068  -0.068  -0.114   0.036  -0.128  -0.128  -0.108
        0.000  -0.496  -0.071  -0.071  -0.295  -0.308   0.421   0.421   0.288

    2  -0.138  -4.303  -0.356  -0.356  -0.380   0.144   0.577   0.577   0.540
        0.496   0.000   0.020   0.020   0.011  -0.383  -0.150  -0.150  -0.145

  Average fulfillment of the sum rule on Im[epsilon] for q-point    8 :    101.68  [%]


--------------------------------------------------------------------------------
  q-point number  9        q = ( 0.500000, 0.125000, 0.000000) [r.l.u.]
--------------------------------------------------------------------------------
  chi0(G,G') at the    1 th omega   0.0000   0.0000 [eV]
       1       2       3       4       5       6       7       8       9
    1  -5.593  -0.498  -0.731  -0.731  -0.765  -0.118  -0.493  -0.493  -0.534
        0.000  -1.388  -1.222  -1.222  -1.605  -0.914   1.578   1.578   1.451

    2  -0.498  -7.189  -1.113  -1.113  -1.107   0.552   1.263   1.263   1.207
        1.388   0.000   0.064   0.064   0.039  -1.447  -0.490  -0.490  -0.460

  chi0(G,G') at the    2 th omega   0.0000  30.5612 [eV]
       1       2       3       4       5       6       7       8       9
    1  -1.742  -0.187  -0.137  -0.137  -0.177   0.040  -0.181  -0.181  -0.172
        0.000  -0.635  -0.234  -0.234  -0.433  -0.353   0.574   0.574   0.485

    2  -0.187  -4.243  -0.333  -0.333  -0.356   0.127   0.604   0.604   0.577
        0.635   0.000   0.019   0.019   0.012  -0.330  -0.134  -0.134  -0.128

  Average fulfillment of the sum rule on Im[epsilon] for q-point    9 :    101.61  [%]


--------------------------------------------------------------------------------
  q-point number 10        q = (-0.375000, 0.125000, 0.000000) [r.l.u.]
--------------------------------------------------------------------------------
  chi0(G,G') at the    1 th omega   0.0000   0.0000 [eV]
       1       2       3       4       5       6       7       8       9
    1  -5.163  -0.118  -0.517  -0.517  -0.436  -0.462  -0.694  -0.694  -0.613
        0.000   0.896  -1.455  -1.455  -1.488   1.342   1.403   1.403   0.760

    2  -0.118  -6.603  -0.968  -0.968  -1.095   0.552   0.815   0.815   0.330
       -0.896   0.000  -0.104  -0.104  -0.155  -1.511  -0.491  -0.491  -0.590

  chi0(G,G') at the    2 th omega   0.0000  30.5612 [eV]
       1       2       3       4       5       6       7       8       9
    1  -1.519   0.039  -0.157  -0.157  -0.165  -0.171  -0.144  -0.144  -0.089
        0.000   0.344  -0.462  -0.462  -0.546   0.592   0.326   0.326   0.079

    2   0.039  -2.399  -0.234  -0.234  -0.253   0.134   0.171   0.171   0.008
       -0.344   0.000  -0.019  -0.019  -0.027  -0.350  -0.095  -0.095  -0.088

  Average fulfillment of the sum rule on Im[epsilon] for q-point   10 :    101.62  [%]


--------------------------------------------------------------------------------
  q-point number 11        q = (-0.250000, 0.125000, 0.000000) [r.l.u.]
--------------------------------------------------------------------------------
  chi0(G,G') at the    1 th omega   0.0000   0.0000 [eV]
       1       2       3       4       5       6       7       8       9
    1  -3.653  -0.106  -0.415  -0.415  -0.354  -0.350  -0.476  -0.476  -0.347
        0.000   0.754  -1.097  -1.097  -1.232   1.169   0.977   0.977   0.124

    2  -0.106  -7.319  -1.102  -1.102  -1.240   0.539   0.970   0.970   0.568
       -0.754   0.000  -0.098  -0.098  -0.149  -1.659  -0.636  -0.636  -0.739

  chi0(G,G') at the    2 th omega   0.0000  30.5612 [eV]
       1       2       3       4       5       6       7       8       9
    1  -0.892   0.033  -0.097  -0.097  -0.114  -0.121  -0.084  -0.084  -0.023
        0.000   0.281  -0.280  -0.280  -0.403   0.444   0.192   0.192  -0.080

    2   0.033  -2.994  -0.275  -0.275  -0.302   0.148   0.254   0.254   0.112
       -0.281   0.000  -0.016  -0.016  -0.024  -0.397  -0.126  -0.126  -0.122

  Average fulfillment of the sum rule on Im[epsilon] for q-point   11 :    101.72  [%]


--------------------------------------------------------------------------------
  q-point number 12        q = (-0.125000, 0.125000, 0.000000) [r.l.u.]
--------------------------------------------------------------------------------
  chi0(G,G') at the    1 th omega   0.0000   0.0000 [eV]
       1       2       3       4       5       6       7       8       9
    1  -1.957  -0.087  -0.249  -0.249  -0.220  -0.220  -0.249  -0.249  -0.087
        0.000   0.443  -0.573  -0.573  -0.867   0.867   0.573   0.573  -0.443

    2  -0.087  -7.809  -1.245  -1.245  -1.388   0.512   1.109   1.109   0.815
       -0.443   0.000  -0.064  -0.064  -0.116  -1.768  -0.753  -0.753  -0.842

  chi0(G,G') at the    2 th omega   0.0000  30.5612 [eV]
       1       2       3       4       5       6       7       8       9
    1  -0.404   0.020  -0.042  -0.042  -0.070  -0.070  -0.042  -0.042   0.020
        0.000   0.169  -0.109  -0.109  -0.274   0.274   0.109   0.109  -0.169

    2   0.020  -3.489  -0.310  -0.310  -0.342   0.157   0.338   0.338   0.220
       -0.169   0.000  -0.009  -0.009  -0.018  -0.428  -0.151  -0.151  -0.148

  Average fulfillment of the sum rule on Im[epsilon] for q-point   12 :    101.85  [%]


--------------------------------------------------------------------------------
  q-point number 13        q = ( 0.250000, 0.250000, 0.000000) [r.l.u.]
--------------------------------------------------------------------------------
  chi0(G,G') at the    1 th omega   0.0000   0.0000 [eV]
       1       2       3       4       5       6       7       8       9
    1  -3.407  -0.394  -0.302  -0.302  -0.394  -0.302  -0.394  -0.394  -0.302
        0.000  -1.196  -0.207  -0.207  -1.196   0.207   1.196   1.196   0.207

    2  -0.394  -8.075  -1.461  -1.461  -1.464   0.693   1.344   1.344   1.203
        1.196   0.000   0.094   0.094  -0.000  -1.505  -0.631  -0.631  -0.644

  chi0(G,G') at the    2 th omega   0.0000  30.5612 [eV]
       1       2       3       4       5       6       7       8       9
    1  -0.770  -0.103  -0.025  -0.025  -0.103  -0.025  -0.103  -0.103  -0.025
        0.000  -0.354   0.043   0.043  -0.354  -0.043   0.354   0.354  -0.043

    2  -0.103  -4.253  -0.361  -0.361  -0.397   0.179   0.547   0.547   0.428
        0.354   0.000   0.017   0.017  -0.000  -0.391  -0.153  -0.153  -0.144

  Average fulfillment of the sum rule on Im[epsilon] for q-point   13 :    101.75  [%]


--------------------------------------------------------------------------------
  q-point number 14        q = ( 0.375000, 0.250000, 0.000000) [r.l.u.]
--------------------------------------------------------------------------------
  chi0(G,G') at the    1 th omega   0.0000   0.0000 [eV]
       1       2       3       4       5       6       7       8       9
    1  -4.718  -0.460  -0.478  -0.478  -0.569  -0.340  -0.495  -0.495  -0.486
        0.000  -1.410  -0.604  -0.604  -1.457  -0.027   1.460   1.460   0.910

    2  -0.460  -7.759  -1.357  -1.357  -1.325   0.702   1.331   1.331   1.219
        1.410   0.000   0.101   0.101   0.021  -1.421  -0.559  -0.559  -0.533

  chi0(G,G') at the    2 th omega   0.0000  30.5612 [eV]
       1       2       3       4       5       6       7       8       9
    1  -1.211  -0.146  -0.063  -0.063  -0.140  -0.015  -0.143  -0.143  -0.092
        0.000  -0.505  -0.036  -0.036  -0.426  -0.143   0.471   0.471   0.171

    2  -0.146  -4.306  -0.354  -0.354  -0.388   0.169   0.584   0.584   0.497
        0.505   0.000   0.021   0.021   0.005  -0.361  -0.145  -0.145  -0.134

  Average fulfillment of the sum rule on Im[epsilon] for q-point   14 :    101.66  [%]


--------------------------------------------------------------------------------
  q-point number 15        q = ( 0.500000, 0.250000, 0.000000) [r.l.u.]
--------------------------------------------------------------------------------
  chi0(G,G') at the    1 th omega   0.0000   0.0000 [eV]
       1       2       3       4       5       6       7       8       9
    1  -5.971  -0.525  -0.698  -0.698  -0.741  -0.372  -0.556  -0.556  -0.604
        0.000  -1.521  -1.130  -1.130  -1.715  -0.148   1.667   1.667   1.387

    2  -0.525  -7.306  -1.172  -1.172  -1.123   0.695   1.295   1.295   1.190
        1.521   0.000   0.083   0.083   0.032  -1.306  -0.470  -0.470  -0.421

  chi0(G,G') at the    2 th omega   0.0000  30.5612 [eV]
       1       2       3       4       5       6       7       8       9
    1  -1.782  -0.190  -0.122  -0.122  -0.191  -0.012  -0.188  -0.188  -0.162
        0.000  -0.637  -0.178  -0.178  -0.533  -0.200   0.599   0.599   0.391

    2  -0.190  -4.264  -0.333  -0.333  -0.366   0.153   0.608   0.608   0.545
        0.637   0.000   0.021   0.021   0.007  -0.317  -0.131  -0.131  -0.119

  Average fulfillment of the sum rule on Im[epsilon] for q-point   15 :    101.60  [%]


--------------------------------------------------------------------------------
  q-point number 16        q = (-0.375000, 0.250000, 0.000000) [r.l.u.]
--------------------------------------------------------------------------------
  chi0(G,G') at the    1 th omega   0.0000   0.0000 [eV]
       1       2       3       4       5       6       7       8       9
    1  -6.252  -0.384  -0.673  -0.673  -0.480  -0.509  -0.781  -0.781  -0.641
        0.000   0.169  -1.714  -1.714  -1.568   1.501   1.752   1.752   0.628

    2  -0.384  -6.922  -1.063  -1.063  -1.053   0.683   0.964   0.964  -0.032
       -0.169   0.000  -0.071  -0.071  -0.126  -1.299  -0.307  -0.307  -0.461

  chi0(G,G') at the    2 th omega   0.0000  30.5612 [eV]
       1       2       3       4       5       6       7       8       9
    1  -1.980  -0.012  -0.198  -0.198  -0.200  -0.201  -0.197  -0.197  -0.085
        0.000   0.208  -0.547  -0.547  -0.661   0.674   0.495   0.495   0.018

    2  -0.012  -2.389  -0.244  -0.244  -0.244   0.145   0.225   0.225  -0.114
       -0.208   0.000  -0.015  -0.015  -0.028  -0.301  -0.070  -0.070  -0.059

  Average fulfillment of the sum rule on Im[epsilon] for q-point   16 :    101.59  [%]


--------------------------------------------------------------------------------
  q-point number 17        q = (-0.250000, 0.250000, 0.000000) [r.l.u.]
--------------------------------------------------------------------------------
  chi0(G,G') at the    1 th omega   0.0000   0.0000 [eV]
       1       2       3       4       5       6       7       8       9
    1  -5.059  -0.373  -0.603  -0.603  -0.437  -0.437  -0.603  -0.603  -0.373
        0.000   0.088  -1.424  -1.424  -1.413   1.413   1.424   1.424  -0.088

    2  -0.373  -7.572  -1.173  -1.173  -1.193   0.697   1.090   1.090   0.260
       -0.088   0.000  -0.070  -0.070  -0.128  -1.429  -0.444  -0.444  -0.630

  chi0(G,G') at the    2 th omega   0.0000  30.5612 [eV]
       1       2       3       4       5       6       7       8       9
    1  -1.387  -0.015  -0.140  -0.140  -0.159  -0.159  -0.140  -0.140  -0.015
        0.000   0.167  -0.369  -0.369  -0.549   0.549   0.369   0.369  -0.167

    2  -0.015  -2.959  -0.280  -0.280  -0.298   0.164   0.296   0.296  -0.008
       -0.167   0.000  -0.014  -0.014  -0.027  -0.350  -0.100  -0.100  -0.093

  Average fulfillment of the sum rule on Im[epsilon] for q-point   17 :    101.64  [%]


--------------------------------------------------------------------------------
  q-point number 18        q = ( 0.375000, 0.375000, 0.000000) [r.l.u.]
--------------------------------------------------------------------------------
  chi0(G,G') at the    1 th omega   0.0000   0.0000 [eV]
       1       2       3       4       5       6       7       8       9
    1  -5.533  -0.569  -0.542  -0.542  -0.569  -0.542  -0.569  -0.569  -0.542
        0.000  -1.598  -0.760  -0.760  -1.598   0.760   1.598   1.598   0.760

    2  -0.569  -7.790  -1.376  -1.376  -1.232   0.860   1.333   1.333   1.184
        1.598   0.000   0.097   0.097  -0.000  -1.170  -0.477  -0.477  -0.444

  chi0(G,G') at the    2 th omega   0.0000  30.5612 [eV]
       1       2       3       4       5       6       7       8       9
    1  -1.534  -0.172  -0.085  -0.085  -0.172  -0.085  -0.172  -0.172  -0.085
        0.000  -0.554  -0.077  -0.077  -0.554   0.077   0.554   0.554   0.077

    2  -0.172  -4.308  -0.358  -0.358  -0.382   0.202   0.593   0.593   0.447
        0.554   0.000   0.021   0.021  -0.000  -0.319  -0.131  -0.131  -0.115

  Average fulfillment of the sum rule on Im[epsilon] for q-point   18 :    101.62  [%]


--------------------------------------------------------------------------------
  q-point number 19        q = ( 0.500000, 0.375000, 0.000000) [r.l.u.]
--------------------------------------------------------------------------------
  chi0(G,G') at the    1 th omega   0.0000   0.0000 [eV]
       1       2       3       4       5       6       7       8       9
    1  -6.470  -0.578  -0.696  -0.696  -0.703  -0.601  -0.618  -0.618  -0.677
        0.000  -1.673  -1.142  -1.142  -1.775   0.651   1.739   1.739   1.346

    2  -0.578  -7.355  -1.206  -1.206  -1.082   0.837   1.307   1.307   1.171
        1.673   0.000   0.096   0.096   0.020  -1.098  -0.422  -0.422  -0.354

  chi0(G,G') at the    2 th omega   0.0000  30.5612 [eV]
       1       2       3       4       5       6       7       8       9
    1  -1.996  -0.206  -0.130  -0.130  -0.211  -0.083  -0.207  -0.207  -0.159
        0.000  -0.669  -0.186  -0.186  -0.634   0.017   0.654   0.654   0.312

    2  -0.206  -4.276  -0.335  -0.335  -0.364   0.185   0.615   0.615   0.508
        0.669   0.000   0.023   0.023   0.003  -0.283  -0.122  -0.122  -0.104

  Average fulfillment of the sum rule on Im[epsilon] for q-point   19 :    101.58  [%]


--------------------------------------------------------------------------------
  q-point number 20        q = (-0.375000, 0.375000, 0.000000) [r.l.u.]
--------------------------------------------------------------------------------
  chi0(G,G') at the    1 th omega   0.0000   0.0000 [eV]
       1       2       3       4       5       6       7       8       9
    1  -7.129  -0.640  -0.820  -0.820  -0.523  -0.523  -0.820  -0.820  -0.640
        0.000  -0.600  -1.968  -1.968  -1.590   1.590   1.968   1.968   0.600

    2  -0.640  -7.294  -1.226  -1.226  -0.904   0.770   1.065   1.065  -0.362
        0.600   0.000  -0.047  -0.047  -0.078  -1.075  -0.156  -0.156  -0.272

  chi0(G,G') at the    2 th omega   0.0000  30.5612 [eV]
       1       2       3       4       5       6       7       8       9
    1  -2.502  -0.084  -0.248  -0.248  -0.232  -0.232  -0.248  -0.248  -0.084
        0.000   0.004  -0.657  -0.657  -0.759   0.759   0.657   0.657  -0.004

    2  -0.084  -2.516  -0.277  -0.277  -0.224   0.158   0.291   0.291  -0.211
       -0.004   0.000  -0.010  -0.010  -0.024  -0.240  -0.042  -0.042  -0.029

  Average fulfillment of the sum rule on Im[epsilon] for q-point   20 :    101.58  [%]


--------------------------------------------------------------------------------
  q-point number 21        q = ( 0.500000, 0.500000, 0.000000) [r.l.u.]
--------------------------------------------------------------------------------
  chi0(G,G') at the    1 th omega   0.0000   0.0000 [eV]
       1       2       3       4       5       6       7       8       9
    1  -7.023  -0.658  -0.757  -0.757  -0.658  -0.757  -0.658  -0.658  -0.757
        0.000  -1.802  -1.297  -1.297  -1.802   1.297   1.802   1.802   1.297

    2  -0.658  -7.346  -1.215  -1.215  -0.990   0.932   1.298   1.298   1.131
        1.802   0.000   0.095   0.095  -0.000  -0.868  -0.358  -0.358  -0.264

  chi0(G,G') at the    2 th omega   0.0000  30.5612 [eV]
       1       2       3       4       5       6       7       8       9
    1  -2.340  -0.234  -0.160  -0.160  -0.234  -0.160  -0.234  -0.234  -0.160
        0.000  -0.727  -0.256  -0.256  -0.727   0.256   0.727   0.727   0.256

    2  -0.234  -4.281  -0.343  -0.343  -0.351   0.216   0.622   0.622   0.466
        0.727   0.000   0.022   0.022  -0.000  -0.236  -0.107  -0.107  -0.084

  Average fulfillment of the sum rule on Im[epsilon] for q-point   21 :    101.58  [%]


--------------------------------------------------------------------------------
  q-point number 22        q = ( 0.375000, 0.250000, 0.125000) [r.l.u.]
--------------------------------------------------------------------------------
  chi0(G,G') at the    1 th omega   0.0000   0.0000 [eV]
       1       2       3       4       5       6       7       8       9
    1  -3.887  -0.384  -0.437  -0.276  -0.477  -0.276  -0.477  -0.384  -0.437
        0.000  -1.266  -0.830   0.160  -1.251  -0.160   1.251   1.266   0.830

    2  -0.384  -7.886  -1.439  -1.327  -1.422   0.651   1.330   1.325   1.257
        1.266   0.000   0.073   0.128   0.026  -1.537  -0.594  -0.643  -0.596

  chi0(G,G') at the    2 th omega   0.0000  30.5612 [eV]
       1       2       3       4       5       6       7       8       9
    1  -0.935  -0.122  -0.075  -0.003  -0.109  -0.003  -0.109  -0.122  -0.075
        0.000  -0.434  -0.147   0.157  -0.330  -0.157   0.330   0.434   0.147

    2  -0.122  -4.296  -0.382  -0.329  -0.393   0.167   0.548   0.577   0.495
        0.434   0.000   0.014   0.023   0.006  -0.385  -0.147  -0.156  -0.143

  Average fulfillment of the sum rule on Im[epsilon] for q-point   22 :    101.71  [%]


--------------------------------------------------------------------------------
  q-point number 23        q = ( 0.500000, 0.250000, 0.125000) [r.l.u.]
--------------------------------------------------------------------------------
  chi0(G,G') at the    1 th omega   0.0000   0.0000 [eV]
       1       2       3       4       5       6       7       8       9
    1  -5.312  -0.470  -0.645  -0.536  -0.671  -0.301  -0.573  -0.464  -0.568
        0.000  -1.427  -1.267  -0.484  -1.564  -0.330   1.567   1.509   1.328

    2  -0.470  -7.488  -1.249  -1.206  -1.227   0.658   1.299   1.297   1.233
        1.427   0.000   0.068   0.104   0.036  -1.425  -0.499  -0.545  -0.483

  chi0(G,G') at the    2 th omega   0.0000  30.5612 [eV]
       1       2       3       4       5       6       7       8       9
    1  -1.491  -0.168  -0.128  -0.060  -0.159   0.003  -0.161  -0.165  -0.141
        0.000  -0.579  -0.263   0.020  -0.434  -0.232   0.485   0.556   0.353

    2  -0.168  -4.289  -0.364  -0.317  -0.375   0.153   0.584   0.604   0.546
        0.579   0.000   0.017   0.025   0.009  -0.345  -0.135  -0.143  -0.130

  Average fulfillment of the sum rule on Im[epsilon] for q-point   23 :    101.63  [%]


--------------------------------------------------------------------------------
  q-point number 24        q = (-0.375000, 0.250000, 0.125000) [r.l.u.]
--------------------------------------------------------------------------------
  chi0(G,G') at the    1 th omega   0.0000   0.0000 [eV]
       1       2       3       4       5       6       7       8       9
    1  -6.434  -0.311  -0.619  -0.639  -0.499  -0.539  -0.833  -0.835  -0.774
        0.000   0.381  -1.757  -1.633  -1.641   1.507   1.670   1.839   1.093

    2  -0.311  -6.434  -1.099  -0.768  -1.046   0.639   0.719   0.905   0.115
       -0.381   0.000  -0.107  -0.047  -0.135  -1.273  -0.275  -0.316  -0.364

  chi0(G,G') at the    2 th omega   0.0000  30.5612 [eV]
       1       2       3       4       5       6       7       8       9
    1  -2.114   0.005  -0.212  -0.204  -0.209  -0.211  -0.193  -0.219  -0.134
        0.000   0.257  -0.636  -0.549  -0.678   0.699   0.416   0.564   0.169

    2   0.005  -2.114  -0.238  -0.195  -0.227   0.132   0.108   0.221  -0.082
       -0.257   0.000  -0.021  -0.011  -0.027  -0.290  -0.052  -0.073  -0.049

  Average fulfillment of the sum rule on Im[epsilon] for q-point   24 :    101.59  [%]


--------------------------------------------------------------------------------
  q-point number 25        q = ( 0.500000, 0.375000, 0.125000) [r.l.u.]
--------------------------------------------------------------------------------
  chi0(G,G') at the    1 th omega   0.0000   0.0000 [eV]
       1       2       3       4       5       6       7       8       9
    1  -5.809  -0.526  -0.629  -0.526  -0.646  -0.526  -0.646  -0.526  -0.629
        0.000  -1.584  -1.227  -0.448  -1.674   0.448   1.674   1.584   1.227

    2  -0.526  -7.555  -1.276  -1.248  -1.197   0.807   1.322   1.311   1.214
        1.584   0.000   0.082   0.117   0.021  -1.230  -0.454  -0.496  -0.424

  chi0(G,G') at the    2 th omega   0.0000  30.5612 [eV]
       1       2       3       4       5       6       7       8       9
    1  -1.662  -0.181  -0.133  -0.058  -0.181  -0.058  -0.181  -0.181  -0.133
        0.000  -0.601  -0.258   0.042  -0.547  -0.042   0.547   0.601   0.258

    2  -0.181  -4.298  -0.368  -0.313  -0.377   0.181   0.593   0.609   0.506
        0.601   0.000   0.018   0.025   0.004  -0.317  -0.126  -0.136  -0.116

  Average fulfillment of the sum rule on Im[epsilon] for q-point   25 :    101.61  [%]


--------------------------------------------------------------------------------
  q-point number 26        q = (-0.375000, 0.375000, 0.125000) [r.l.u.]
--------------------------------------------------------------------------------
  chi0(G,G') at the    1 th omega   0.0000   0.0000 [eV]
       1       2       3       4       5       6       7       8       9
    1  -7.251  -0.560  -0.759  -0.776  -0.522  -0.554  -0.885  -0.871  -0.790
        0.000  -0.373  -1.959  -1.899  -1.647   1.601   1.966   2.026   1.047

    2  -0.560  -6.807  -1.207  -0.946  -0.925   0.724   0.911   1.001  -0.239
        0.373   0.000  -0.073  -0.023  -0.095  -1.058  -0.108  -0.169  -0.186

  chi0(G,G') at the    2 th omega   0.0000  30.5612 [eV]
       1       2       3       4       5       6       7       8       9
    1  -2.569  -0.056  -0.253  -0.247  -0.237  -0.237  -0.248  -0.261  -0.133
        0.000   0.079  -0.723  -0.644  -0.768   0.771   0.595   0.698   0.139

    2  -0.056  -2.203  -0.261  -0.220  -0.208   0.142   0.190   0.274  -0.186
       -0.079   0.000  -0.016  -0.005  -0.025  -0.235  -0.025  -0.051  -0.021

  Average fulfillment of the sum rule on Im[epsilon] for q-point   26 :    101.58  [%]


--------------------------------------------------------------------------------
  q-point number 27        q = (-0.250000, 0.375000, 0.125000) [r.l.u.]
--------------------------------------------------------------------------------
  chi0(G,G') at the    1 th omega   0.0000   0.0000 [eV]
       1       2       3       4       5       6       7       8       9
    1  -6.423  -0.563  -0.736  -0.736  -0.513  -0.513  -0.736  -0.736  -0.563
        0.000  -0.382  -1.815  -1.667  -1.580   1.580   1.667   1.815   0.382

    2  -0.563  -7.528  -1.316  -1.011  -1.082   0.786   1.035   1.119   0.055
        0.382   0.000  -0.081  -0.034  -0.107  -1.207  -0.235  -0.296  -0.384

  chi0(G,G') at the    2 th omega   0.0000  30.5612 [eV]
       1       2       3       4       5       6       7       8       9
    1  -2.012  -0.057  -0.208  -0.190  -0.203  -0.203  -0.190  -0.208  -0.057
        0.000   0.072  -0.583  -0.462  -0.674   0.674   0.462   0.583  -0.072

    2  -0.057  -2.754  -0.302  -0.246  -0.268   0.168   0.253   0.330  -0.100
       -0.072   0.000  -0.017  -0.008  -0.026  -0.290  -0.055  -0.078  -0.052

  Average fulfillment of the sum rule on Im[epsilon] for q-point   27 :    101.59  [%]


--------------------------------------------------------------------------------
  q-point number 28        q = (-0.375000, 0.500000, 0.125000) [r.l.u.]
--------------------------------------------------------------------------------
  chi0(G,G') at the    1 th omega   0.0000   0.0000 [eV]
       1       2       3       4       5       6       7       8       9
    1  -7.798  -0.760  -0.870  -0.892  -0.545  -0.545  -0.892  -0.870  -0.760
        0.000  -1.072  -2.122  -2.118  -1.637   1.637   2.118   2.122   1.072

    2  -0.760  -7.201  -1.332  -1.182  -0.714   0.724   1.037   1.061  -0.519
        1.072   0.000  -0.046   0.000  -0.047  -0.825   0.000  -0.065  -0.000

  chi0(G,G') at the    2 th omega   0.0000  30.5612 [eV]
       1       2       3       4       5       6       7       8       9
    1  -3.036  -0.131  -0.298  -0.295  -0.261  -0.261  -0.295  -0.298  -0.131
        0.000  -0.144  -0.819  -0.754  -0.841   0.841   0.754   0.819   0.144

    2  -0.131  -2.431  -0.298  -0.267  -0.183   0.150   0.277   0.334  -0.252
        0.144   0.000  -0.011   0.000  -0.020  -0.174   0.000  -0.029   0.000

  Average fulfillment of the sum rule on Im[epsilon] for q-point   28 :    101.58  [%]


--------------------------------------------------------------------------------
  q-point number 29        q = (-0.250000, 0.500000, 0.250000) [r.l.u.]
--------------------------------------------------------------------------------
  chi0(G,G') at the    1 th omega   0.0000   0.0000 [eV]
       1       2       3       4       5       6       7       8       9
    1  -7.537  -0.772  -0.813  -0.857  -0.568  -0.568  -0.857  -0.813  -0.772
        0.000  -1.004  -2.010  -1.936  -1.701   1.701   1.936   2.010   1.004

    2  -0.772  -7.537  -1.332  -0.948  -0.942   0.831   1.012   1.089   0.003
        1.004   0.000  -0.078   0.000  -0.085  -0.926  -0.000  -0.146  -0.000

  chi0(G,G') at the    2 th omega   0.0000  30.5612 [eV]
       1       2       3       4       5       6       7       8       9
    1  -2.681  -0.121  -0.267  -0.250  -0.246  -0.246  -0.250  -0.267  -0.121
        0.000  -0.104  -0.763  -0.590  -0.790   0.790   0.590   0.763   0.104

    2  -0.121  -2.681  -0.313  -0.233  -0.236   0.169   0.237   0.367  -0.133
        0.104   0.000  -0.019   0.000  -0.024  -0.214  -0.000  -0.055   0.000

  Average fulfillment of the sum rule on Im[epsilon] for q-point   29 :    101.57  [%]

================================================================================
== DATASET  2 ==================================================================
-   mpi_nproc: 256, omp_nthreads: -1 (-1 if OMP is not activated)


--- !DatasetInfo
iteration_state: {dtset: 2, }
dimensions: {natom: 2, nkpt: 29, mband: 480, nsppol: 1, nspinor: 1, nspden: 1, mpw: 1174, }
cutoff_energies: {ecut:  45.0, pawecutdg:  -1.0, }
electrons: {nelect:   8.00000000E+00, charge:   0.00000000E+00, occopt:   1.00000000E+00, tsmear:   1.00000000E-02, }
meta: {optdriver: 4, gwcalctyp: 0, }
...

 mkfilename: getwfk from: ../outdata_gs_DS2_WFK

 mkfilename : getscr/=0, take file _SCR from output of DATASET   1.

 Exchange-correlation functional for the present dataset will be:
  GGA: Perdew-Burke-Ernzerhof functional - ixc=11
 Citation for XC functional:
  J.P.Perdew, K.Burke, M.Ernzerhof, PRL 77, 3865 (1996)

 SIGMA: Calculation of the GW corrections 

 Based on a program developped by R.W. Godby, V. Olevano, G. Onida, and L. Reining.
 Incorporated in ABINIT by V. Olevano, G.-M. Rignanese, and M. Torrent.
.Using single precision arithmetic ; gwpc =  4

 Real(R)+Recip(G) space primitive vectors, cartesian coordinates (Bohr,Bohr^-1):
 R(1)=  0.0000000  3.4156800  3.4156800  G(1)= -0.1463837  0.1463837  0.1463837
 R(2)=  3.4156800  0.0000000  3.4156800  G(2)=  0.1463837 -0.1463837  0.1463837
 R(3)=  3.4156800  3.4156800  0.0000000  G(3)=  0.1463837  0.1463837 -0.1463837
 Unit cell volume ucvol=  7.9700587E+01 bohr^3
 Angles (23,13,12)=  6.00000000E+01  6.00000000E+01  6.00000000E+01 degrees
--------------------------------------------------------------------------------

 ==== K-mesh for the wavefunctions ====
 Number of points in the irreducible wedge :    29
 Reduced coordinates and weights : 

     1)     0.00000000E+00  0.00000000E+00  0.00000000E+00       0.00195
     2)     1.25000000E-01  0.00000000E+00  0.00000000E+00       0.01563
     3)     2.50000000E-01  0.00000000E+00  0.00000000E+00       0.01563
     4)     3.75000000E-01  0.00000000E+00  0.00000000E+00       0.01563
     5)     5.00000000E-01  0.00000000E+00  0.00000000E+00       0.00781
     6)     1.25000000E-01  1.25000000E-01  0.00000000E+00       0.01172
     7)     2.50000000E-01  1.25000000E-01  0.00000000E+00       0.04688
     8)     3.75000000E-01  1.25000000E-01  0.00000000E+00       0.04688
     9)     5.00000000E-01  1.25000000E-01  0.00000000E+00       0.04688
    10)    -3.75000000E-01  1.25000000E-01  0.00000000E+00       0.04688
    11)    -2.50000000E-01  1.25000000E-01  0.00000000E+00       0.04688
    12)    -1.25000000E-01  1.25000000E-01  0.00000000E+00       0.02344
    13)     2.50000000E-01  2.50000000E-01  0.00000000E+00       0.01172
    14)     3.75000000E-01  2.50000000E-01  0.00000000E+00       0.04688
    15)     5.00000000E-01  2.50000000E-01  0.00000000E+00       0.04688
    16)    -3.75000000E-01  2.50000000E-01  0.00000000E+00       0.04688
    17)    -2.50000000E-01  2.50000000E-01  0.00000000E+00       0.02344
    18)     3.75000000E-01  3.75000000E-01  0.00000000E+00       0.01172
    19)     5.00000000E-01  3.75000000E-01  0.00000000E+00       0.04688
    20)    -3.75000000E-01  3.75000000E-01  0.00000000E+00       0.02344
    21)     5.00000000E-01  5.00000000E-01  0.00000000E+00       0.00586
    22)     3.75000000E-01  2.50000000E-01  1.25000000E-01       0.04688
    23)     5.00000000E-01  2.50000000E-01  1.25000000E-01       0.09375
    24)    -3.75000000E-01  2.50000000E-01  1.25000000E-01       0.04688
    25)     5.00000000E-01  3.75000000E-01  1.25000000E-01       0.04688
    26)    -3.75000000E-01  3.75000000E-01  1.25000000E-01       0.09375
    27)    -2.50000000E-01  3.75000000E-01  1.25000000E-01       0.04688
    28)    -3.75000000E-01  5.00000000E-01  1.25000000E-01       0.02344
    29)    -2.50000000E-01  5.00000000E-01  2.50000000E-01       0.01172

 Together with 24 symmetry operations and time-reversal symmetry 
 yields   512 points in the full Brillouin Zone.


 ==== Q-mesh for screening function ====
 Number of points in the irreducible wedge :    29
 Reduced coordinates and weights : 

     1)     0.00000000E+00  0.00000000E+00  0.00000000E+00       0.00195
     2)     1.25000000E-01  0.00000000E+00  0.00000000E+00       0.01563
     3)     2.50000000E-01  0.00000000E+00  0.00000000E+00       0.01563
     4)     3.75000000E-01  0.00000000E+00  0.00000000E+00       0.01563
     5)     5.00000000E-01  0.00000000E+00  0.00000000E+00       0.00781
     6)     1.25000000E-01  1.25000000E-01  0.00000000E+00       0.01172
     7)     2.50000000E-01  1.25000000E-01  0.00000000E+00       0.04688
     8)     3.75000000E-01  1.25000000E-01  0.00000000E+00       0.04688
     9)     5.00000000E-01  1.25000000E-01  0.00000000E+00       0.04688
    10)    -3.75000000E-01  1.25000000E-01  0.00000000E+00       0.04688
    11)    -2.50000000E-01  1.25000000E-01  0.00000000E+00       0.04688
    12)    -1.25000000E-01  1.25000000E-01  0.00000000E+00       0.02344
    13)     2.50000000E-01  2.50000000E-01  0.00000000E+00       0.01172
    14)     3.75000000E-01  2.50000000E-01  0.00000000E+00       0.04688
    15)     5.00000000E-01  2.50000000E-01  0.00000000E+00       0.04688
    16)    -3.75000000E-01  2.50000000E-01  0.00000000E+00       0.04688
    17)    -2.50000000E-01  2.50000000E-01  0.00000000E+00       0.02344
    18)     3.75000000E-01  3.75000000E-01  0.00000000E+00       0.01172
    19)     5.00000000E-01  3.75000000E-01  0.00000000E+00       0.04688
    20)    -3.75000000E-01  3.75000000E-01  0.00000000E+00       0.02344
    21)     5.00000000E-01  5.00000000E-01  0.00000000E+00       0.00586
    22)     3.75000000E-01  2.50000000E-01  1.25000000E-01       0.04688
    23)     5.00000000E-01  2.50000000E-01  1.25000000E-01       0.09375
    24)    -3.75000000E-01  2.50000000E-01  1.25000000E-01       0.04688
    25)     5.00000000E-01  3.75000000E-01  1.25000000E-01       0.04688
    26)    -3.75000000E-01  3.75000000E-01  1.25000000E-01       0.09375
    27)    -2.50000000E-01  3.75000000E-01  1.25000000E-01       0.04688
    28)    -3.75000000E-01  5.00000000E-01  1.25000000E-01       0.02344
    29)    -2.50000000E-01  5.00000000E-01  2.50000000E-01       0.01172

 Together with 24 symmetry operations and time-reversal symmetry 
 yields   512 points in the full Brillouin Zone.


 setmesh: FFT mesh size selected  =    30x   30x   30
          total number of points  =        27000

 Number of electrons calculated from density =    8.0000; Expected =    8.0000
 average of density, n =  0.100376
 r_s =    1.3348
 omega_plasma =   30.5612 [eV]


 === KS Band Gaps ===
  >>>> For spin  1
   Minimum direct gap =   8.8768 [eV], located at k-point      :   0.0000  0.0000  0.0000
   Fundamental gap    =   4.5338 [eV], Top of valence bands at :   0.0000  0.0000  0.0000
                                       Bottom of conduction at :   0.5000  0.5000  0.0000
 SIGMA fundamental parameters:
 PLASMON POLE MODEL  1
 number of plane-waves for SigmaX                 1139
 number of plane-waves for SigmaC and W            169
 number of plane-waves for wavefunctions          1139
 number of bands                                   480
 number of independent spin polarizations            1
 number of spinorial components                      1
 number of k-points in IBZ                          29
 number of q-points in IBZ                          29
 number of symmetry operations                      24
 number of k-points in BZ                          512
 number of q-points in BZ                          512
 number of frequencies for dSigma/dE                 9
 frequency step for dSigma/dE [eV]                0.25
 number of omega for Sigma on real axis              0
 max omega for Sigma on real axis  [eV]           0.00
 zcut for avoiding poles [eV]                     0.10

 EPSILON^-1 parameters (SCR file):
 dimension of the eps^-1 matrix on file            169
 dimension of the eps^-1 matrix used               169
 number of plane-waves for wavefunctions          1139
 number of bands                                   480
 number of q-points in IBZ                          29
 number of frequencies                               2
 number of real frequencies                          1
 number of imag frequencies                          1

 matrix elements of self-energy operator (all in [eV])

 Perturbative Calculation

--- !SelfEnergy_ee
iteration_state: {dtset: 2, }
kpoint     : [   0.000,    0.000,    0.000, ]
spin       : 1
KS_gap     :    8.877
QP_gap     :   11.027
Delta_QP_KS:    2.151
data: !SigmaeeData |
     Band     E0 <VxcDFT>   SigX SigC(E0)      Z dSigC/dE  Sig(E)    E-E0       E
        1 -11.989 -15.598 -26.827   8.382   0.771  -0.298 -17.792  -2.194 -14.184
        2   8.221 -18.519 -22.080   2.230   0.826  -0.210 -19.619  -1.100   7.122
        3   8.221 -18.519 -22.080   2.230   0.826  -0.210 -19.619  -1.100   7.122
        4   8.221 -18.519 -22.080   2.230   0.826  -0.210 -19.619  -1.100   7.122
        5  17.098 -13.778  -7.152  -5.378   0.842  -0.187 -12.727   1.051  18.149
        6  17.098 -13.778  -7.152  -5.378   0.842  -0.187 -12.727   1.051  18.149
        7  17.098 -13.778  -7.152  -5.378   0.842  -0.187 -12.727   1.051  18.149
        8  18.587 -15.528  -8.704  -6.019   0.822  -0.216 -14.866   0.663  19.250
...


--- !SelfEnergy_ee
iteration_state: {dtset: 2, }
kpoint     : [   0.500,    0.500,    0.000, ]
spin       : 1
KS_gap     :    9.442
QP_gap     :   11.457
Delta_QP_KS:    2.015
data: !SigmaeeData |
     Band     E0 <VxcDFT>   SigX SigC(E0)      Z dSigC/dE  Sig(E)    E-E0       E
        1  -6.400 -17.414 -27.095   6.979   0.762  -0.312 -19.473  -2.059  -8.459
        2  -0.686 -15.403 -22.372   4.493   0.805  -0.243 -17.396  -1.992  -2.679
        3   3.313 -16.496 -21.658   3.296   0.814  -0.228 -18.015  -1.519   1.794
        4   3.313 -16.496 -21.658   3.296   0.814  -0.228 -18.015  -1.519   1.794
        5  12.755 -12.570  -7.394  -4.596   0.854  -0.171 -12.075   0.495  13.250
        6  17.562 -12.696  -6.779  -5.189   0.850  -0.176 -12.077   0.619  18.181
        7  26.126 -16.466  -6.653  -7.899   0.782  -0.279 -14.969   1.497  27.623
        8  26.126 -16.466  -6.653  -7.899   0.782  -0.279 -14.969   1.497  27.623
...


== END DATASET(S) ==============================================================
================================================================================
  
 -outvars: echo values of variables after computation  --------
            acell      6.8313599704E+00  6.8313599704E+00  6.8313599704E+00 Bohr
              amu      1.08110000E+01  1.40067400E+01
             bdgw           1       8       1       8
           diemac      1.20000000E+01
             ecut      4.50000000E+01 Hartree
          ecuteps      1.20000000E+01 Hartree
         ecutsigx      4.50000000E+01 Hartree
          ecutwfn      4.50000000E+01 Hartree
           etotal1     0.0000000000E+00
           etotal2     0.0000000000E+00
            fcart1     0.0000000000E+00  0.0000000000E+00  0.0000000000E+00
                       0.0000000000E+00  0.0000000000E+00  0.0000000000E+00
            fcart2     0.0000000000E+00  0.0000000000E+00  0.0000000000E+00
                       0.0000000000E+00  0.0000000000E+00  0.0000000000E+00
-          fftalg         312
           getscr1          0
           getscr2         -1
           istwfk        1    0    0    0    1    0    0    0    0    0
                         0    0    0    0    0    0    0    0    0    0
                         1    0    0    0    0    0    0    0    0
              ixc          11
           jdtset        1    2
              kpt      0.00000000E+00  0.00000000E+00  0.00000000E+00
                       1.25000000E-01  0.00000000E+00  0.00000000E+00
                       2.50000000E-01  0.00000000E+00  0.00000000E+00
                       3.75000000E-01  0.00000000E+00  0.00000000E+00
                       5.00000000E-01  0.00000000E+00  0.00000000E+00
                       1.25000000E-01  1.25000000E-01  0.00000000E+00
                       2.50000000E-01  1.25000000E-01  0.00000000E+00
                       3.75000000E-01  1.25000000E-01  0.00000000E+00
                       5.00000000E-01  1.25000000E-01  0.00000000E+00
                      -3.75000000E-01  1.25000000E-01  0.00000000E+00
                      -2.50000000E-01  1.25000000E-01  0.00000000E+00
                      -1.25000000E-01  1.25000000E-01  0.00000000E+00
                       2.50000000E-01  2.50000000E-01  0.00000000E+00
                       3.75000000E-01  2.50000000E-01  0.00000000E+00
                       5.00000000E-01  2.50000000E-01  0.00000000E+00
                      -3.75000000E-01  2.50000000E-01  0.00000000E+00
                      -2.50000000E-01  2.50000000E-01  0.00000000E+00
                       3.75000000E-01  3.75000000E-01  0.00000000E+00
                       5.00000000E-01  3.75000000E-01  0.00000000E+00
                      -3.75000000E-01  3.75000000E-01  0.00000000E+00
                       5.00000000E-01  5.00000000E-01  0.00000000E+00
                       3.75000000E-01  2.50000000E-01  1.25000000E-01
                       5.00000000E-01  2.50000000E-01  1.25000000E-01
                      -3.75000000E-01  2.50000000E-01  1.25000000E-01
                       5.00000000E-01  3.75000000E-01  1.25000000E-01
                      -3.75000000E-01  3.75000000E-01  1.25000000E-01
                      -2.50000000E-01  3.75000000E-01  1.25000000E-01
                      -3.75000000E-01  5.00000000E-01  1.25000000E-01
                      -2.50000000E-01  5.00000000E-01  2.50000000E-01
            kptgw      0.00000000E+00  0.00000000E+00  0.00000000E+00
                       5.00000000E-01  5.00000000E-01  0.00000000E+00
         kptrlatt        8    0    0      0    8    0      0    0    8
          kptrlen      3.86440077E+01
P           mkmem           1
            natom           2
            nband         480
           ndtset           2
            ngfft          30      30      30
             nkpt          29
           nkptgw           2
           npweps         169
          npwsigx        1139
           npwwfn        1139
            nstep          50
             nsym          24
           ntypat           2
              occ      2.000000  2.000000  2.000000  2.000000  0.000000  0.000000
                       0.000000  0.000000  0.000000  0.000000  0.000000  0.000000
                       0.000000  0.000000  0.000000  0.000000  0.000000  0.000000
                       0.000000  0.000000  0.000000  0.000000  0.000000  0.000000
                       0.000000  0.000000  0.000000  0.000000  0.000000  0.000000
                       0.000000  0.000000  0.000000  0.000000  0.000000  0.000000
                       0.000000  0.000000  0.000000  0.000000  0.000000  0.000000
                       0.000000  0.000000  0.000000  0.000000  0.000000  0.000000
                       0.000000  0.000000  0.000000  0.000000  0.000000  0.000000
                       0.000000  0.000000  0.000000  0.000000  0.000000  0.000000
                       0.000000  0.000000  0.000000  0.000000  0.000000  0.000000
                       0.000000  0.000000  0.000000  0.000000  0.000000  0.000000
                       0.000000  0.000000  0.000000  0.000000  0.000000  0.000000
                       0.000000  0.000000  0.000000  0.000000  0.000000  0.000000
                       0.000000  0.000000  0.000000  0.000000  0.000000  0.000000
                       0.000000  0.000000  0.000000  0.000000  0.000000  0.000000
                       0.000000  0.000000  0.000000  0.000000  0.000000  0.000000
                       0.000000  0.000000  0.000000  0.000000  0.000000  0.000000
                       0.000000  0.000000  0.000000  0.000000  0.000000  0.000000
                       0.000000  0.000000  0.000000  0.000000  0.000000  0.000000
                       0.000000  0.000000  0.000000  0.000000  0.000000  0.000000
                       0.000000  0.000000  0.000000  0.000000  0.000000  0.000000
                       0.000000  0.000000  0.000000  0.000000  0.000000  0.000000
                       0.000000  0.000000  0.000000  0.000000  0.000000  0.000000
                       0.000000  0.000000  0.000000  0.000000  0.000000  0.000000
                       0.000000  0.000000  0.000000  0.000000  0.000000  0.000000
                       0.000000  0.000000  0.000000  0.000000  0.000000  0.000000
                       0.000000  0.000000  0.000000  0.000000  0.000000  0.000000
                       0.000000  0.000000  0.000000  0.000000  0.000000  0.000000
                       0.000000  0.000000  0.000000  0.000000  0.000000  0.000000
                       0.000000  0.000000  0.000000  0.000000  0.000000  0.000000
                       0.000000  0.000000  0.000000  0.000000  0.000000  0.000000
                       0.000000  0.000000  0.000000  0.000000  0.000000  0.000000
                       0.000000  0.000000  0.000000  0.000000  0.000000  0.000000
                       0.000000  0.000000  0.000000  0.000000  0.000000  0.000000
                       0.000000  0.000000  0.000000  0.000000  0.000000  0.000000
                       0.000000  0.000000  0.000000  0.000000  0.000000  0.000000
                       0.000000  0.000000  0.000000  0.000000  0.000000  0.000000
                       0.000000  0.000000  0.000000  0.000000  0.000000  0.000000
                       0.000000  0.000000  0.000000  0.000000  0.000000  0.000000
                       0.000000  0.000000  0.000000  0.000000  0.000000  0.000000
                       0.000000  0.000000  0.000000  0.000000  0.000000  0.000000
                       0.000000  0.000000  0.000000  0.000000  0.000000  0.000000
                       0.000000  0.000000  0.000000  0.000000  0.000000  0.000000
                       0.000000  0.000000  0.000000  0.000000  0.000000  0.000000
                       0.000000  0.000000  0.000000  0.000000  0.000000  0.000000
                       0.000000  0.000000  0.000000  0.000000  0.000000  0.000000
                       0.000000  0.000000  0.000000  0.000000  0.000000  0.000000
                       0.000000  0.000000  0.000000  0.000000  0.000000  0.000000
                       0.000000  0.000000  0.000000  0.000000  0.000000  0.000000
                       0.000000  0.000000  0.000000  0.000000  0.000000  0.000000
                       0.000000  0.000000  0.000000  0.000000  0.000000  0.000000
                       0.000000  0.000000  0.000000  0.000000  0.000000  0.000000
                       0.000000  0.000000  0.000000  0.000000  0.000000  0.000000
                       0.000000  0.000000  0.000000  0.000000  0.000000  0.000000
                       0.000000  0.000000  0.000000  0.000000  0.000000  0.000000
[...]
                       0.000000  0.000000  0.000000  0.000000  0.000000  0.000000
                       0.000000  0.000000  0.000000  0.000000  0.000000  0.000000
        optdriver1          3
        optdriver2          4
            rprim      0.0000000000E+00  5.0000000000E-01  5.0000000000E-01
                       5.0000000000E-01  0.0000000000E+00  5.0000000000E-01
                       5.0000000000E-01  5.0000000000E-01  0.0000000000E+00
          spgroup         216
           strten1     0.0000000000E+00  0.0000000000E+00  0.0000000000E+00
                       0.0000000000E+00  0.0000000000E+00  0.0000000000E+00
           strten2     0.0000000000E+00  0.0000000000E+00  0.0000000000E+00
                       0.0000000000E+00  0.0000000000E+00  0.0000000000E+00
           symrel      1  0  0   0  1  0   0  0  1       0 -1  1   0 -1  0   1 -1  0
                      -1  0  0  -1  0  1  -1  1  0       0  1 -1   1  0 -1   0  0 -1
                      -1  0  0  -1  1  0  -1  0  1       0 -1  1   1 -1  0   0 -1  0
                       1  0  0   0  0  1   0  1  0       0  1 -1   0  0 -1   1  0 -1
                      -1  0  1  -1  1  0  -1  0  0       0 -1  0   1 -1  0   0 -1  1
                       1  0 -1   0  0 -1   0  1 -1       0  1  0   0  0  1   1  0  0
                       1  0 -1   0  1 -1   0  0 -1       0 -1  0   0 -1  1   1 -1  0
                      -1  0  1  -1  0  0  -1  1  0       0  1  0   1  0  0   0  0  1
                       0  0 -1   0  1 -1   1  0 -1       1 -1  0   0 -1  1   0 -1  0
                       0  0  1   1  0  0   0  1  0      -1  1  0  -1  0  0  -1  0  1
                       0  0  1   0  1  0   1  0  0       1 -1  0   0 -1  0   0 -1  1
                       0  0 -1   1  0 -1   0  1 -1      -1  1  0  -1  0  1  -1  0  0
           timopt          -1
            typat      1  2
              wtk        0.00195    0.01563    0.01563    0.01563    0.00781    0.01172
                         0.04688    0.04688    0.04688    0.04688    0.04688    0.02344
                         0.01172    0.04688    0.04688    0.04688    0.02344    0.01172
                         0.04688    0.02344    0.00586    0.04688    0.09375    0.04688
                         0.04688    0.09375    0.04688    0.02344    0.01172
           xangst      0.0000000000E+00  0.0000000000E+00  0.0000000000E+00
                       9.0375000000E-01  9.0375000000E-01  9.0375000000E-01
            xcart      0.0000000000E+00  0.0000000000E+00  0.0000000000E+00
                       1.7078399926E+00  1.7078399926E+00  1.7078399926E+00
             xred      0.0000000000E+00  0.0000000000E+00  0.0000000000E+00
                       2.5000000000E-01  2.5000000000E-01  2.5000000000E-01
            znucl        5.00000    7.00000

================================================================================

 Test the timer : 
  a combined call timab(*,1,tsec) + timab(*,2,tsec) is 
- CPU time =    6.2319E-07 sec,    Wall time =    6.2325E-07 sec

- Total cpu        time (s,m,h):      11194.9      186.58      3.110
- Total wall clock time (s,m,h):      11275.9      187.93      3.132
-
- For major independent code sections, cpu and wall times (sec),
-  as well as % of the time and number of calls for node 0
-
-<BEGIN_TIMER mpi_nprocs = 256, omp_nthreads = 1, mpi_rank = 0>
- cpu_time =           43.0, wall_time =           44.1
-
- routine                            cpu     %          wall     %      number of calls Gflops    Speedup Efficacity
-                                                                        (-1=no count)
- sigma/=fourdp                     4.799   0.0         4.932   0.0              1      -1.00        0.97       0.97
- wfd_read_wfk                      1.569   0.0         1.584   0.0              2      -1.00        0.99       0.99
- pspini                            0.533   0.0         0.540   0.0              2      -1.00        0.99       0.99
- timing timab                      0.121   0.0         0.121   0.0             14      -1.00        1.00       1.00
- abinit(2)                         0.119   0.0         0.163   0.0              1      -1.00        0.73       0.73
- fourdp                            0.046   0.0         0.048   0.0             34      -1.00        0.97       0.97
- invars2                           0.039   0.0         0.039   0.0              2      -1.00        1.00       1.00
- ewald                             0.020   0.0         0.020   0.0              2      -1.00        1.00       1.00
- xc:pot/=fourdp                    0.016   0.0         0.017   0.0              3      -1.00        0.99       0.99
- mkcore                            0.013   0.0         0.013   0.0              2      -1.00        1.00       1.00
- others (145)                      0.012   0.0         0.012   0.0             -1      -1.00        1.00       1.00
-<END_TIMER>
-
- subtotal                          7.287   0.1         7.489   0.1                                  0.97       0.97

- For major independent code sections, cpu and wall times (sec),
- as well as % of the total time and number of calls 

-<BEGIN_TIMER mpi_nprocs = 256, omp_nthreads = 1, mpi_rank = world>
- cpu_time =       11194.9, wall_time =       11275.9
-
- routine                            cpu     %          wall     %      number of calls Gflops    Speedup Efficacity
-                                                                        (-1=no count)
- sigma/=fourdp                  1197.271  10.7      1229.696  10.9            256      -1.00        0.97       0.97
- wfd_read_wfk                    405.248   3.6       405.440   3.6            512      -1.00        1.00       1.00
- pspini                          134.704   1.2       135.374   1.2            512      -1.00        1.00       1.00
- timing timab                     30.012   0.3        30.015   0.3           3584      -1.00        1.00       1.00
- abinit(2)                        16.650   0.1        17.063   0.2            256      -1.00        0.98       0.98
- invars2                           9.577   0.1         9.579   0.1            512      -1.00        1.00       1.00
- fourdp                            5.198   0.0        11.734   0.1           8704      -1.00        0.44       0.44
- ewald                             4.978   0.0         4.982   0.0            512      -1.00        1.00       1.00
- xc:pot/=fourdp                    4.443   0.0         4.468   0.0            768      -1.00        0.99       0.99
- mkcore                            3.331   0.0         3.332   0.0            512      -1.00        1.00       1.00
- mkffnl                            1.501   0.0         1.493   0.0           7424      -1.00        1.01       1.01
- kpgsph                            0.789   0.0         0.788   0.0          76346      -1.00        1.00       1.00
- symrhg(no FFT)                    0.340   0.0         0.340   0.0            512      -1.00        1.00       1.00
- others (142)                      0.000   0.0         0.000   0.0             -1      -1.00        0.00       0.00
-<END_TIMER>

- subtotal                       1814.040  16.2      1854.304  16.4                                  0.98       0.98

 Partitioning of abinit
- abinit                        11194.946 100.0     11275.924 100.0            256                   0.99       0.99
 
- abinit(1)                        51.787   0.5        61.269   0.5            256                   0.85       0.85
- abinit(2)                        16.650   0.1        17.063   0.2            256                   0.98       0.98
- indefo+macroin+invars2m          10.087   0.1        10.091   0.1            256                   1.00       1.00
- abinit(4)                        57.538   0.5        61.628   0.5            256                   0.93       0.93
- abinit(5)                        39.062   0.3        39.165   0.3            256                   1.00       1.00
- driver                        11043.507  98.6     11111.633  98.5            256                   0.99       0.99
- timing timab                     30.012   0.3        30.015   0.3           3584                   1.00       1.00

- subtotal                      11194.946 100.0     11275.924 100.0                                  0.99       0.99

 Partitioning of driver
- driver                        11043.507  98.6     11111.633  98.5            256                   0.99       0.99
 
- driver(bef. select case)          8.747   0.1        21.554   0.2            512                   0.41       0.41
- screening                      9803.752  87.6      9826.531  87.1            256                   1.00       1.00
- sigma                          1197.349  10.7      1229.773  10.9            256                   0.97       0.97
- (other)                          32.978   0.3        33.026   0.3             -1                   1.00       1.00

- subtotal                      11043.507  98.6     11111.633  98.5                                  0.99       0.99

 Partitioning of screening
- screening                      9803.752  87.6      9826.531  87.1            256                   1.00       1.00
 
- screening(init1)                386.569   3.5       388.074   3.4            256                   1.00       1.00
- screening(wfs)                  288.141   2.6       288.389   2.6            256                   1.00       1.00
- screening(1)                     10.109   0.1        10.115   0.1            256                   1.00       1.00
- screening(density)               46.211   0.4        57.347   0.5            256                   0.81       0.81
- screening(2)                      7.727   0.1         7.779   0.1            256                   0.99       0.99
- screening(cchi0q0)              127.454   1.1       135.281   1.2            256                   0.94       0.94
- screening(cchi0)               8874.441  79.3      8876.076  78.7           7168                   1.00       1.00
- screening(q-loop,end)            62.007   0.6        62.257   0.6           7424                   1.00       1.00

- subtotal                       9802.769  87.6      9825.546  87.1                                  1.00       1.00

 Partitioning of sigma
- sigma                          1197.349  10.7      1229.773  10.9            256                   0.97       0.97
 
- sigma(Init1)                      9.628   0.1         9.634   0.1            512                   1.00       1.00
- setup_sigma                      93.042   0.8        93.460   0.8            256                   1.00       1.00
- sigma(rdkss)                    128.718   1.1       128.740   1.1            256                   1.00       1.00
- sigma(Init2)                      2.854   0.0         2.862   0.0            256                   1.00       1.00
- sigma(make_vhxc)                 20.953   0.2        20.956   0.2            256                   1.00       1.00
- sigma(vHxc_me)                    4.765   0.0         4.882   0.0            256                   0.98       0.98
- sigma(hqp_init)                  49.296   0.4        49.311   0.4            256                   1.00       1.00
- sigma(getW)                      15.212   0.1        40.008   0.4            256                   0.38       0.38
- sigma(calc_sigx_me)             173.132   1.5       173.169   1.5            256                   1.00       1.00
- sigma(calc_sigc_me)             691.654   6.2       691.899   6.1            512                   1.00       1.00
- sigma(solve_dyson)                4.191   0.0        10.758   0.1            256                   0.39       0.39

- subtotal                       1193.446  10.7      1225.680  10.9                                  0.97       0.97

 Partitioning of calc_sigc_me
- calc_sigc_me                    691.654   6.2       691.899   6.1            512                   1.00       1.00
 
- calc_sigc_me(Init)               40.322   0.4        40.375   0.4            512                   1.00       1.00
- calc_sigc_me(Init q)              2.311   0.0         2.323   0.0          22528                   0.99       0.99
- calc_sigc_me(loop)              592.906   5.3       592.969   5.3          22528                   1.00       1.00
- calc_sigc_me(xmpi_sum)           55.076   0.5        55.160   0.5            512                   1.00       1.00

- subtotal                        691.551   6.2       691.810   6.1                                  1.00       1.00

 Partitioning of  fourdp (upwards partitioning)
- fourdp                            5.198   0.0        11.734   0.1           8704                   0.44       0.44
 
- fourdp%(other)                    5.048   0.0        11.584   0.1           8192                   0.44       0.44

- subtotal                          5.198   0.0        11.734   0.1                                  0.44       0.44
-
-Synchronisation (=leave_test) and MPI calls 
- communic.MPI                      5.132   0.0         5.159   0.0            256                   0.99       0.99
-
- subtotal                          0.000   0.0         0.000   0.0                                  0.00       0.00

 Additional information
- timana(1)                         0.267   0.0         0.274   0.0            256                   0.97       0.97
- total timab                      30.593   0.3        30.596   0.3       50777658                   1.00       1.00
- xc:fourdp                         1.925   0.0         1.920   0.0           6144                   1.00       1.00
- calc_sigc_me(1)             1842912.054******  78324897.026******          42240                   0.02       0.02
- calc_sigc_me(rho_tw_g)           60.693   0.5        60.722   0.5          42240                   1.00       1.00
- calc_sigc_me(2)                 528.956   4.7       529.120   4.7         337920                   1.00       1.00
- calc_sigc_me(sigma_me)            0.401   0.0         0.403   0.0         337920                   1.00       1.00
- cchi0                          8874.202  79.3      8875.872  78.7           7168                   1.00       1.00

 timana : in multi dataset mode, the more detailed analysis is not done.

================================================================================

 Suggested references for the acknowledgment of ABINIT usage.

 The users of ABINIT have little formal obligations with respect to the ABINIT group
 (those specified in the GNU General Public License, http://www.gnu.org/copyleft/gpl.txt).
 However, it is common practice in the scientific literature,
 to acknowledge the efforts of people that have made the research possible.
 In this spirit, please find below suggested citations of work written by ABINIT developers,
 corresponding to implementations inside of ABINIT that you have used in the present run.
 Note also that it will be of great value to readers of publications presenting these results,
 to read papers enabling them to understand the theoretical formalism and details
 of the ABINIT implementation.
 For information on why they are suggested, see also https://docs.abinit.org/theory/acknowledgments.
-
- [1] The Abinit project: Impact, environment and recent developments.
- Computer Phys. Comm. 248, 107042 (2020).
- X.Gonze, B. Amadon, G. Antonius, F.Arnardi, L.Baguet, J.-M.Beuken,
- J.Bieder, F.Bottin, J.Bouchet, E.Bousquet, N.Brouwer, F.Bruneval,
- G.Brunin, T.Cavignac, J.-B. Charraud, Wei Chen, M.Cote, S.Cottenier,
- J.Denier, G.Geneste, Ph.Ghosez, M.Giantomassi, Y.Gillet, O.Gingras,
- D.R.Hamann, G.Hautier, Xu He, N.Helbig, N.Holzwarth, Y.Jia, F.Jollet,
- W.Lafargue-Dit-Hauret, K.Lejaeghere, M.A.L.Marques, A.Martin, C.Martins,
- H.P.C. Miranda, F.Naccarato, K. Persson, G.Petretto, V.Planes, Y.Pouillon,
- S.Prokhorenko, F.Ricci, G.-M.Rignanese, A.H.Romero, M.M.Schmitt, M.Torrent,
- M.J.van Setten, B.Van Troeye, M.J.Verstraete, G.Zerah and J.W.Zwanzig
- Comment: the fifth generic paper describing the ABINIT project.
- Note that a version of this paper, that is not formatted for Computer Phys. Comm. 
- is available at https://www.abinit.org/sites/default/files/ABINIT20.pdf .
- The licence allows the authors to put it on the Web.
- DOI and bibtex: see https://docs.abinit.org/theory/bibliography/#gonze2020
-
- [2] Optimized norm-conserving Vanderbilt pseudopotentials.
- D.R. Hamann, Phys. Rev. B 88, 085117 (2013).
- Comment: Some pseudopotential generated using the ONCVPSP code were used.
- DOI and bibtex: see https://docs.abinit.org/theory/bibliography/#hamann2013
-
- [3] ABINIT: Overview, and focus on selected capabilities
- J. Chem. Phys. 152, 124102 (2020).
- A. Romero, D.C. Allan, B. Amadon, G. Antonius, T. Applencourt, L.Baguet,
- J.Bieder, F.Bottin, J.Bouchet, E.Bousquet, F.Bruneval,
- G.Brunin, D.Caliste, M.Cote,
- J.Denier, C. Dreyer, Ph.Ghosez, M.Giantomassi, Y.Gillet, O.Gingras,
- D.R.Hamann, G.Hautier, F.Jollet, G. Jomard,
- A.Martin, 
- H.P.C. Miranda, F.Naccarato, G.Petretto, N.A. Pike, V.Planes,
- S.Prokhorenko, T. Rangel, F.Ricci, G.-M.Rignanese, M.Royo, M.Stengel, M.Torrent,
- M.J.van Setten, B.Van Troeye, M.J.Verstraete, J.Wiktor, J.W.Zwanziger, and X.Gonze.
- Comment: a global overview of ABINIT, with focus on selected capabilities .
- Note that a version of this paper, that is not formatted for J. Chem. Phys 
- is available at https://www.abinit.org/sites/default/files/ABINIT20_JPC.pdf .
- The licence allows the authors to put it on the Web.
- DOI and bibtex: see https://docs.abinit.org/theory/bibliography/#romero2020
-
- [4] Recent developments in the ABINIT software package.
- Computer Phys. Comm. 205, 106 (2016).
- X.Gonze, F.Jollet, F.Abreu Araujo, D.Adams, B.Amadon, T.Applencourt,
- C.Audouze, J.-M.Beuken, J.Bieder, A.Bokhanchuk, E.Bousquet, F.Bruneval
- D.Caliste, M.Cote, F.Dahm, F.Da Pieve, M.Delaveau, M.Di Gennaro,
- B.Dorado, C.Espejo, G.Geneste, L.Genovese, A.Gerossier, M.Giantomassi,
- Y.Gillet, D.R.Hamann, L.He, G.Jomard, J.Laflamme Janssen, S.Le Roux,
- A.Levitt, A.Lherbier, F.Liu, I.Lukacevic, A.Martin, C.Martins,
- M.J.T.Oliveira, S.Ponce, Y.Pouillon, T.Rangel, G.-M.Rignanese,
- A.H.Romero, B.Rousseau, O.Rubel, A.A.Shukri, M.Stankovski, M.Torrent,
- M.J.Van Setten, B.Van Troeye, M.J.Verstraete, D.Waroquier, J.Wiktor,
- B.Xu, A.Zhou, J.W.Zwanziger.
- Comment: the fourth generic paper describing the ABINIT project.
- Note that a version of this paper, that is not formatted for Computer Phys. Comm. 
- is available at https://www.abinit.org/sites/default/files/ABINIT16.pdf .
- The licence allows the authors to put it on the Web.
- DOI and bibtex: see https://docs.abinit.org/theory/bibliography/#gonze2016
-
- And optionally:
-
- [5] ABINIT: First-principles approach of materials and nanosystem properties.
- Computer Phys. Comm. 180, 2582-2615 (2009).
- X. Gonze, B. Amadon, P.-M. Anglade, J.-M. Beuken, F. Bottin, P. Boulanger, F. Bruneval,
- D. Caliste, R. Caracas, M. Cote, T. Deutsch, L. Genovese, Ph. Ghosez, M. Giantomassi
- S. Goedecker, D.R. Hamann, P. Hermet, F. Jollet, G. Jomard, S. Leroux, M. Mancini, S. Mazevet,
- M.J.T. Oliveira, G. Onida, Y. Pouillon, T. Rangel, G.-M. Rignanese, D. Sangalli, R. Shaltaf,
- M. Torrent, M.J. Verstraete, G. Zerah, J.W. Zwanziger
- Comment: the third generic paper describing the ABINIT project.
- Note that a version of this paper, that is not formatted for Computer Phys. Comm. 
- is available at https://www.abinit.org/sites/default/files/ABINIT_CPC_v10.pdf .
- The licence allows the authors to put it on the Web.
- DOI and bibtex: see https://docs.abinit.org/theory/bibliography/#gonze2009
-
- Proc.   0 individual time (sec): cpu=         43.0  wall=         44.1

================================================================================

 Calculation completed.
.Delivered   0 WARNINGs and   0 COMMENTs to log file.
+Overall time at end (sec) : cpu=      11206.8  wall=      11287.8
