
.Version 9.9.2 of ABINIT 
.(MPI version, prepared for a x86_64_linux_gnu11.2 computer) 

.Copyright (C) 1998-2022 ABINIT group . 
 ABINIT comes with ABSOLUTELY NO WARRANTY.
 It is free software, and you are welcome to redistribute it
 under certain conditions (GNU General Public License,
 see ~abinit/COPYING or http://www.gnu.org/copyleft/gpl.txt).

 ABINIT is a project of the Universite Catholique de Louvain,
 Corning Inc. and other collaborators, see ~abinit/doc/developers/contributors.txt .
 Please read https://docs.abinit.org/theory/acknowledgments for suggested
 acknowledgments of the ABINIT effort.
 For more information, see https://www.abinit.org .

.Starting date : Sat 18 Feb 2023.
- ( at 22h18 )
  
- input  file    -> run.abi
- output file    -> run.abo
- root for input  files -> ../indata_gs
- root for output files -> outdata_gwr


 DATASET    1 : space group Fd -3 m (#227); Bravais cF (face-center cubic)
================================================================================
 Values of the parameters that define the memory need for DATASET  1.
     intxc =       0    ionmov =       0      iscf =       7    lmnmax =       4
     lnmax =       4     mgfft =      30  mpssoang =       2    mqgrid =    3001
     natom =       2  nloc_mem =       1    nspden =       1   nspinor =       1
    nsppol =       1      nsym =      48    n1xccc =    2501    ntypat =       1
    occopt =       1   xclevel =       2
-    mband =         480        mffmem =           1         mkmem =           1
       mpw =         941          nfft =       27000          nkpt =          29
================================================================================
P This job should need less than                      23.468 Mbytes of memory.
  Rough estimation (10% accuracy) of disk space for files :
_ WF disk file :    199.873 Mbytes ; DEN or POT disk file :      0.208 Mbytes.
================================================================================


 DATASET    2 : space group Fd -3 m (#227); Bravais cF (face-center cubic)
================================================================================
 Values of the parameters that define the memory need for DATASET  2.
     intxc =       0    ionmov =       0      iscf =       7    lmnmax =       4
     lnmax =       4     mgfft =      30  mpssoang =       2    mqgrid =    3001
     natom =       2  nloc_mem =       1    nspden =       1   nspinor =       1
    nsppol =       1      nsym =      48    n1xccc =    2501    ntypat =       1
    occopt =       1   xclevel =       2
-    mband =         480        mffmem =           1         mkmem =           1
       mpw =         941          nfft =       27000          nkpt =          29
================================================================================
P This job should need less than                      23.468 Mbytes of memory.
  Rough estimation (10% accuracy) of disk space for files :
_ WF disk file :    199.873 Mbytes ; DEN or POT disk file :      0.208 Mbytes.
================================================================================


 DATASET    3 : space group Fd -3 m (#227); Bravais cF (face-center cubic)
================================================================================
 Values of the parameters that define the memory need for DATASET  3.
     intxc =       0    ionmov =       0      iscf =       7    lmnmax =       4
     lnmax =       4     mgfft =      30  mpssoang =       2    mqgrid =    3001
     natom =       2  nloc_mem =       1    nspden =       1   nspinor =       1
    nsppol =       1      nsym =      48    n1xccc =    2501    ntypat =       1
    occopt =       1   xclevel =       2
-    mband =         480        mffmem =           1         mkmem =           1
       mpw =         941          nfft =       27000          nkpt =          29
================================================================================
P This job should need less than                      23.468 Mbytes of memory.
  Rough estimation (10% accuracy) of disk space for files :
_ WF disk file :    199.873 Mbytes ; DEN or POT disk file :      0.208 Mbytes.
================================================================================


 DATASET    4 : space group Fd -3 m (#227); Bravais cF (face-center cubic)
================================================================================
 Values of the parameters that define the memory need for DATASET  4.
     intxc =       0    ionmov =       0      iscf =       7    lmnmax =       4
     lnmax =       4     mgfft =      30  mpssoang =       2    mqgrid =    3001
     natom =       2  nloc_mem =       1    nspden =       1   nspinor =       1
    nsppol =       1      nsym =      48    n1xccc =    2501    ntypat =       1
    occopt =       1   xclevel =       2
-    mband =         480        mffmem =           1         mkmem =           1
       mpw =         941          nfft =       27000          nkpt =          29
================================================================================
P This job should need less than                      23.468 Mbytes of memory.
  Rough estimation (10% accuracy) of disk space for files :
_ WF disk file :    199.873 Mbytes ; DEN or POT disk file :      0.208 Mbytes.
================================================================================


 DATASET    5 : space group Fd -3 m (#227); Bravais cF (face-center cubic)
================================================================================
 Values of the parameters that define the memory need for DATASET  5.
     intxc =       0    ionmov =       0      iscf =       7    lmnmax =       4
     lnmax =       4     mgfft =      30  mpssoang =       2    mqgrid =    3001
     natom =       2  nloc_mem =       1    nspden =       1   nspinor =       1
    nsppol =       1      nsym =      48    n1xccc =    2501    ntypat =       1
    occopt =       1   xclevel =       2
-    mband =         480        mffmem =           1         mkmem =           1
       mpw =         941          nfft =       27000          nkpt =          29
================================================================================
P This job should need less than                      23.468 Mbytes of memory.
  Rough estimation (10% accuracy) of disk space for files :
_ WF disk file :    199.873 Mbytes ; DEN or POT disk file :      0.208 Mbytes.
================================================================================


 DATASET    6 : space group Fd -3 m (#227); Bravais cF (face-center cubic)
================================================================================
 Values of the parameters that define the memory need for DATASET  6.
     intxc =       0    ionmov =       0      iscf =       7    lmnmax =       4
     lnmax =       4     mgfft =      30  mpssoang =       2    mqgrid =    3001
     natom =       2  nloc_mem =       1    nspden =       1   nspinor =       1
    nsppol =       1      nsym =      48    n1xccc =    2501    ntypat =       1
    occopt =       1   xclevel =       2
-    mband =         480        mffmem =           1         mkmem =           1
       mpw =         941          nfft =       27000          nkpt =          29
================================================================================
P This job should need less than                      23.468 Mbytes of memory.
  Rough estimation (10% accuracy) of disk space for files :
_ WF disk file :    199.873 Mbytes ; DEN or POT disk file :      0.208 Mbytes.
================================================================================


 DATASET    7 : space group Fd -3 m (#227); Bravais cF (face-center cubic)
================================================================================
 Values of the parameters that define the memory need for DATASET  7.
     intxc =       0    ionmov =       0      iscf =       7    lmnmax =       4
     lnmax =       4     mgfft =      30  mpssoang =       2    mqgrid =    3001
     natom =       2  nloc_mem =       1    nspden =       1   nspinor =       1
    nsppol =       1      nsym =      48    n1xccc =    2501    ntypat =       1
    occopt =       1   xclevel =       2
-    mband =         480        mffmem =           1         mkmem =           1
       mpw =         941          nfft =       27000          nkpt =          29
================================================================================
P This job should need less than                      23.468 Mbytes of memory.
  Rough estimation (10% accuracy) of disk space for files :
_ WF disk file :    199.873 Mbytes ; DEN or POT disk file :      0.208 Mbytes.
================================================================================


 DATASET    8 : space group Fd -3 m (#227); Bravais cF (face-center cubic)
================================================================================
 Values of the parameters that define the memory need for DATASET  8.
     intxc =       0    ionmov =       0      iscf =       7    lmnmax =       4
     lnmax =       4     mgfft =      30  mpssoang =       2    mqgrid =    3001
     natom =       2  nloc_mem =       1    nspden =       1   nspinor =       1
    nsppol =       1      nsym =      48    n1xccc =    2501    ntypat =       1
    occopt =       1   xclevel =       2
-    mband =         480        mffmem =           1         mkmem =           1
       mpw =         941          nfft =       27000          nkpt =          29
================================================================================
P This job should need less than                      23.468 Mbytes of memory.
  Rough estimation (10% accuracy) of disk space for files :
_ WF disk file :    199.873 Mbytes ; DEN or POT disk file :      0.208 Mbytes.
================================================================================


 DATASET    9 : space group Fd -3 m (#227); Bravais cF (face-center cubic)
================================================================================
 Values of the parameters that define the memory need for DATASET  9.
     intxc =       0    ionmov =       0      iscf =       7    lmnmax =       4
     lnmax =       4     mgfft =      30  mpssoang =       2    mqgrid =    3001
     natom =       2  nloc_mem =       1    nspden =       1   nspinor =       1
    nsppol =       1      nsym =      48    n1xccc =    2501    ntypat =       1
    occopt =       1   xclevel =       2
-    mband =         480        mffmem =           1         mkmem =           1
       mpw =         941          nfft =       27000          nkpt =          29
================================================================================
P This job should need less than                      23.468 Mbytes of memory.
  Rough estimation (10% accuracy) of disk space for files :
_ WF disk file :    199.873 Mbytes ; DEN or POT disk file :      0.208 Mbytes.
================================================================================


 DATASET   10 : space group Fd -3 m (#227); Bravais cF (face-center cubic)
================================================================================
 Values of the parameters that define the memory need for DATASET 10.
     intxc =       0    ionmov =       0      iscf =       7    lmnmax =       4
     lnmax =       4     mgfft =      30  mpssoang =       2    mqgrid =    3001
     natom =       2  nloc_mem =       1    nspden =       1   nspinor =       1
    nsppol =       1      nsym =      48    n1xccc =    2501    ntypat =       1
    occopt =       1   xclevel =       2
-    mband =         480        mffmem =           1         mkmem =           1
       mpw =         941          nfft =       27000          nkpt =          29
================================================================================
P This job should need less than                      23.468 Mbytes of memory.
  Rough estimation (10% accuracy) of disk space for files :
_ WF disk file :    199.873 Mbytes ; DEN or POT disk file :      0.208 Mbytes.
================================================================================


 DATASET   11 : space group Fd -3 m (#227); Bravais cF (face-center cubic)
================================================================================
 Values of the parameters that define the memory need for DATASET 11.
     intxc =       0    ionmov =       0      iscf =       7    lmnmax =       4
     lnmax =       4     mgfft =      30  mpssoang =       2    mqgrid =    3001
     natom =       2  nloc_mem =       1    nspden =       1   nspinor =       1
    nsppol =       1      nsym =      48    n1xccc =    2501    ntypat =       1
    occopt =       1   xclevel =       2
-    mband =         480        mffmem =           1         mkmem =           1
       mpw =         941          nfft =       27000          nkpt =          29
================================================================================
P This job should need less than                      23.468 Mbytes of memory.
  Rough estimation (10% accuracy) of disk space for files :
_ WF disk file :    199.873 Mbytes ; DEN or POT disk file :      0.208 Mbytes.
================================================================================


 DATASET   12 : space group Fd -3 m (#227); Bravais cF (face-center cubic)
================================================================================
 Values of the parameters that define the memory need for DATASET 12.
     intxc =       0    ionmov =       0      iscf =       7    lmnmax =       4
     lnmax =       4     mgfft =      30  mpssoang =       2    mqgrid =    3001
     natom =       2  nloc_mem =       1    nspden =       1   nspinor =       1
    nsppol =       1      nsym =      48    n1xccc =    2501    ntypat =       1
    occopt =       1   xclevel =       2
-    mband =         480        mffmem =           1         mkmem =           1
       mpw =         941          nfft =       27000          nkpt =          29
================================================================================
P This job should need less than                      23.468 Mbytes of memory.
  Rough estimation (10% accuracy) of disk space for files :
_ WF disk file :    199.873 Mbytes ; DEN or POT disk file :      0.208 Mbytes.
================================================================================


 DATASET   13 : space group Fd -3 m (#227); Bravais cF (face-center cubic)
================================================================================
 Values of the parameters that define the memory need for DATASET 13.
     intxc =       0    ionmov =       0      iscf =       7    lmnmax =       4
     lnmax =       4     mgfft =      30  mpssoang =       2    mqgrid =    3001
     natom =       2  nloc_mem =       1    nspden =       1   nspinor =       1
    nsppol =       1      nsym =      48    n1xccc =    2501    ntypat =       1
    occopt =       1   xclevel =       2
-    mband =         480        mffmem =           1         mkmem =           1
       mpw =         941          nfft =       27000          nkpt =          29
================================================================================
P This job should need less than                      23.468 Mbytes of memory.
  Rough estimation (10% accuracy) of disk space for files :
_ WF disk file :    199.873 Mbytes ; DEN or POT disk file :      0.208 Mbytes.
================================================================================


 DATASET   14 : space group Fd -3 m (#227); Bravais cF (face-center cubic)
================================================================================
 Values of the parameters that define the memory need for DATASET 14.
     intxc =       0    ionmov =       0      iscf =       7    lmnmax =       4
     lnmax =       4     mgfft =      30  mpssoang =       2    mqgrid =    3001
     natom =       2  nloc_mem =       1    nspden =       1   nspinor =       1
    nsppol =       1      nsym =      48    n1xccc =    2501    ntypat =       1
    occopt =       1   xclevel =       2
-    mband =         480        mffmem =           1         mkmem =           1
       mpw =         941          nfft =       27000          nkpt =          29
================================================================================
P This job should need less than                      23.468 Mbytes of memory.
  Rough estimation (10% accuracy) of disk space for files :
_ WF disk file :    199.873 Mbytes ; DEN or POT disk file :      0.208 Mbytes.
================================================================================


 DATASET   15 : space group Fd -3 m (#227); Bravais cF (face-center cubic)
================================================================================
 Values of the parameters that define the memory need for DATASET 15.
     intxc =       0    ionmov =       0      iscf =       7    lmnmax =       4
     lnmax =       4     mgfft =      30  mpssoang =       2    mqgrid =    3001
     natom =       2  nloc_mem =       1    nspden =       1   nspinor =       1
    nsppol =       1      nsym =      48    n1xccc =    2501    ntypat =       1
    occopt =       1   xclevel =       2
-    mband =         480        mffmem =           1         mkmem =           1
       mpw =         941          nfft =       27000          nkpt =          29
================================================================================
P This job should need less than                      23.468 Mbytes of memory.
  Rough estimation (10% accuracy) of disk space for files :
_ WF disk file :    199.873 Mbytes ; DEN or POT disk file :      0.208 Mbytes.
================================================================================

--------------------------------------------------------------------------------
------------- Echo of variables that govern the present computation ------------
--------------------------------------------------------------------------------
-
- outvars: echo of selected default values                                      
-   iomode0 =  0 , fftalg0 =312 , wfoptalg0 =  0
-
- outvars: echo of global parameters not present in the input file              
-  max_nthreads =    0
-
 -outvars: echo values of preprocessed input variables --------
            acell      6.7406531160E+00  6.7406531160E+00  6.7406531160E+00 Bohr
              amu      1.20110000E+01
             bdgw           1       5       1       5
           diemac      1.20000000E+01
             ecut      4.00000000E+01 Hartree
          ecuteps      1.20000000E+01 Hartree
         ecutsigx      3.60000000E+01 Hartree
-          fftalg         312
-     gwr_np_kgts        4   64    2    1
-  gwr_ucsc_batch        4    4
         gwr_ntau1          6
         gwr_ntau2          8
         gwr_ntau3         10
         gwr_ntau4         12
         gwr_ntau5         14
         gwr_ntau6         16
         gwr_ntau7         18
         gwr_ntau8         20
         gwr_ntau9         22
         gwr_ntau10        24
         gwr_ntau11        26
         gwr_ntau12        28
         gwr_ntau13        30
         gwr_ntau14        32
         gwr_ntau15        34
   gwr_sigma_algo           2
           istwfk        1    0    0    0    1    0    0    0    0    0
                         0    0    0    0    0    0    0    0    0    0
                         1    0    0    0    0    0    0    0    0
              ixc          11
           jdtset        1    2    3    4    5    6    7    8    9   10
                        11   12   13   14   15
              kpt      0.00000000E+00  0.00000000E+00  0.00000000E+00
                       1.25000000E-01  0.00000000E+00  0.00000000E+00
                       2.50000000E-01  0.00000000E+00  0.00000000E+00
                       3.75000000E-01  0.00000000E+00  0.00000000E+00
                       5.00000000E-01  0.00000000E+00  0.00000000E+00
                       1.25000000E-01  1.25000000E-01  0.00000000E+00
                       2.50000000E-01  1.25000000E-01  0.00000000E+00
                       3.75000000E-01  1.25000000E-01  0.00000000E+00
                       5.00000000E-01  1.25000000E-01  0.00000000E+00
                      -3.75000000E-01  1.25000000E-01  0.00000000E+00
                      -2.50000000E-01  1.25000000E-01  0.00000000E+00
                      -1.25000000E-01  1.25000000E-01  0.00000000E+00
                       2.50000000E-01  2.50000000E-01  0.00000000E+00
                       3.75000000E-01  2.50000000E-01  0.00000000E+00
                       5.00000000E-01  2.50000000E-01  0.00000000E+00
                      -3.75000000E-01  2.50000000E-01  0.00000000E+00
                      -2.50000000E-01  2.50000000E-01  0.00000000E+00
                       3.75000000E-01  3.75000000E-01  0.00000000E+00
                       5.00000000E-01  3.75000000E-01  0.00000000E+00
                      -3.75000000E-01  3.75000000E-01  0.00000000E+00
                       5.00000000E-01  5.00000000E-01  0.00000000E+00
                       3.75000000E-01  2.50000000E-01  1.25000000E-01
                       5.00000000E-01  2.50000000E-01  1.25000000E-01
                      -3.75000000E-01  2.50000000E-01  1.25000000E-01
                       5.00000000E-01  3.75000000E-01  1.25000000E-01
                      -3.75000000E-01  3.75000000E-01  1.25000000E-01
                      -2.50000000E-01  3.75000000E-01  1.25000000E-01
                      -3.75000000E-01  5.00000000E-01  1.25000000E-01
                      -2.50000000E-01  5.00000000E-01  2.50000000E-01
            kptgw      0.00000000E+00  0.00000000E+00  0.00000000E+00
                       5.00000000E-01  5.00000000E-01  0.00000000E+00
         kptrlatt        8    0    0      0    8    0      0    0    8
          kptrlen      3.81308922E+01
P           mkmem           1
            natom           2
            nband         480
           ndtset          15
            ngfft          30      30      30
             nkpt          29
           nkptgw           2
            nstep          50
             nsym          48
           ntypat           1
              occ      2.000000  2.000000  2.000000  2.000000  0.000000  0.000000
                       0.000000  0.000000  0.000000  0.000000  0.000000  0.000000
                       0.000000  0.000000  0.000000  0.000000  0.000000  0.000000
                       0.000000  0.000000  0.000000  0.000000  0.000000  0.000000
                       0.000000  0.000000  0.000000  0.000000  0.000000  0.000000
                       0.000000  0.000000  0.000000  0.000000  0.000000  0.000000
                       0.000000  0.000000  0.000000  0.000000  0.000000  0.000000
                       0.000000  0.000000  0.000000  0.000000  0.000000  0.000000
                       0.000000  0.000000  0.000000  0.000000  0.000000  0.000000
                       0.000000  0.000000  0.000000  0.000000  0.000000  0.000000
                       0.000000  0.000000  0.000000  0.000000  0.000000  0.000000
                       0.000000  0.000000  0.000000  0.000000  0.000000  0.000000
                       0.000000  0.000000  0.000000  0.000000  0.000000  0.000000
                       0.000000  0.000000  0.000000  0.000000  0.000000  0.000000
                       0.000000  0.000000  0.000000  0.000000  0.000000  0.000000
                       0.000000  0.000000  0.000000  0.000000  0.000000  0.000000
                       0.000000  0.000000  0.000000  0.000000  0.000000  0.000000
                       0.000000  0.000000  0.000000  0.000000  0.000000  0.000000
                       0.000000  0.000000  0.000000  0.000000  0.000000  0.000000
                       0.000000  0.000000  0.000000  0.000000  0.000000  0.000000
                       0.000000  0.000000  0.000000  0.000000  0.000000  0.000000
                       0.000000  0.000000  0.000000  0.000000  0.000000  0.000000
                       0.000000  0.000000  0.000000  0.000000  0.000000  0.000000
                       0.000000  0.000000  0.000000  0.000000  0.000000  0.000000
                       0.000000  0.000000  0.000000  0.000000  0.000000  0.000000
                       0.000000  0.000000  0.000000  0.000000  0.000000  0.000000
                       0.000000  0.000000  0.000000  0.000000  0.000000  0.000000
                       0.000000  0.000000  0.000000  0.000000  0.000000  0.000000
                       0.000000  0.000000  0.000000  0.000000  0.000000  0.000000
                       0.000000  0.000000  0.000000  0.000000  0.000000  0.000000
                       0.000000  0.000000  0.000000  0.000000  0.000000  0.000000
                       0.000000  0.000000  0.000000  0.000000  0.000000  0.000000
                       0.000000  0.000000  0.000000  0.000000  0.000000  0.000000
                       0.000000  0.000000  0.000000  0.000000  0.000000  0.000000
                       0.000000  0.000000  0.000000  0.000000  0.000000  0.000000
                       0.000000  0.000000  0.000000  0.000000  0.000000  0.000000
                       0.000000  0.000000  0.000000  0.000000  0.000000  0.000000
                       0.000000  0.000000  0.000000  0.000000  0.000000  0.000000
                       0.000000  0.000000  0.000000  0.000000  0.000000  0.000000
                       0.000000  0.000000  0.000000  0.000000  0.000000  0.000000
                       0.000000  0.000000  0.000000  0.000000  0.000000  0.000000
                       0.000000  0.000000  0.000000  0.000000  0.000000  0.000000
                       0.000000  0.000000  0.000000  0.000000  0.000000  0.000000
                       0.000000  0.000000  0.000000  0.000000  0.000000  0.000000
                       0.000000  0.000000  0.000000  0.000000  0.000000  0.000000
                       0.000000  0.000000  0.000000  0.000000  0.000000  0.000000
                       0.000000  0.000000  0.000000  0.000000  0.000000  0.000000
                       0.000000  0.000000  0.000000  0.000000  0.000000  0.000000
                       0.000000  0.000000  0.000000  0.000000  0.000000  0.000000
                       0.000000  0.000000  0.000000  0.000000  0.000000  0.000000
                       0.000000  0.000000  0.000000  0.000000  0.000000  0.000000
                       0.000000  0.000000  0.000000  0.000000  0.000000  0.000000
                       0.000000  0.000000  0.000000  0.000000  0.000000  0.000000
                       0.000000  0.000000  0.000000  0.000000  0.000000  0.000000
                       0.000000  0.000000  0.000000  0.000000  0.000000  0.000000
                       0.000000  0.000000  0.000000  0.000000  0.000000  0.000000
                       0.000000  0.000000  0.000000  0.000000  0.000000  0.000000
                       0.000000  0.000000  0.000000  0.000000  0.000000  0.000000
                       0.000000  0.000000  0.000000  0.000000  0.000000  0.000000
                       0.000000  0.000000  0.000000  0.000000  0.000000  0.000000
                       0.000000  0.000000  0.000000  0.000000  0.000000  0.000000
                       0.000000  0.000000  0.000000  0.000000  0.000000  0.000000
                       0.000000  0.000000  0.000000  0.000000  0.000000  0.000000
                       0.000000  0.000000  0.000000  0.000000  0.000000  0.000000
                       0.000000  0.000000  0.000000  0.000000  0.000000  0.000000
                       0.000000  0.000000  0.000000  0.000000  0.000000  0.000000
                       0.000000  0.000000  0.000000  0.000000  0.000000  0.000000
                       0.000000  0.000000  0.000000  0.000000  0.000000  0.000000
                       0.000000  0.000000  0.000000  0.000000  0.000000  0.000000
                       0.000000  0.000000  0.000000  0.000000  0.000000  0.000000
                       0.000000  0.000000  0.000000  0.000000  0.000000  0.000000
                       0.000000  0.000000  0.000000  0.000000  0.000000  0.000000
                       0.000000  0.000000  0.000000  0.000000  0.000000  0.000000
                       0.000000  0.000000  0.000000  0.000000  0.000000  0.000000
                       0.000000  0.000000  0.000000  0.000000  0.000000  0.000000
                       0.000000  0.000000  0.000000  0.000000  0.000000  0.000000
                       0.000000  0.000000  0.000000  0.000000  0.000000  0.000000
                       0.000000  0.000000  0.000000  0.000000  0.000000  0.000000
                       0.000000  0.000000  0.000000  0.000000  0.000000  0.000000
                       0.000000  0.000000  0.000000  0.000000  0.000000  0.000000
        optdriver           6
            rprim      0.0000000000E+00  5.0000000000E-01  5.0000000000E-01
                       5.0000000000E-01  0.0000000000E+00  5.0000000000E-01
                       5.0000000000E-01  5.0000000000E-01  0.0000000000E+00
          spgroup         227
           symrel      1  0  0   0  1  0   0  0  1      -1  0  0   0 -1  0   0  0 -1
                       0 -1  1   0 -1  0   1 -1  0       0  1 -1   0  1  0  -1  1  0
                      -1  0  0  -1  0  1  -1  1  0       1  0  0   1  0 -1   1 -1  0
                       0  1 -1   1  0 -1   0  0 -1       0 -1  1  -1  0  1   0  0  1
                      -1  0  0  -1  1  0  -1  0  1       1  0  0   1 -1  0   1  0 -1
                       0 -1  1   1 -1  0   0 -1  0       0  1 -1  -1  1  0   0  1  0
                       1  0  0   0  0  1   0  1  0      -1  0  0   0  0 -1   0 -1  0
                       0  1 -1   0  0 -1   1  0 -1       0 -1  1   0  0  1  -1  0  1
                      -1  0  1  -1  1  0  -1  0  0       1  0 -1   1 -1  0   1  0  0
                       0 -1  0   1 -1  0   0 -1  1       0  1  0  -1  1  0   0  1 -1
                       1  0 -1   0  0 -1   0  1 -1      -1  0  1   0  0  1   0 -1  1
                       0  1  0   0  0  1   1  0  0       0 -1  0   0  0 -1  -1  0  0
                       1  0 -1   0  1 -1   0  0 -1      -1  0  1   0 -1  1   0  0  1
                       0 -1  0   0 -1  1   1 -1  0       0  1  0   0  1 -1  -1  1  0
                      -1  0  1  -1  0  0  -1  1  0       1  0 -1   1  0  0   1 -1  0
                       0  1  0   1  0  0   0  0  1       0 -1  0  -1  0  0   0  0 -1
                       0  0 -1   0  1 -1   1  0 -1       0  0  1   0 -1  1  -1  0  1
                       1 -1  0   0 -1  1   0 -1  0      -1  1  0   0  1 -1   0  1  0
                       0  0  1   1  0  0   0  1  0       0  0 -1  -1  0  0   0 -1  0
                      -1  1  0  -1  0  0  -1  0  1       1 -1  0   1  0  0   1  0 -1
                       0  0  1   0  1  0   1  0  0       0  0 -1   0 -1  0  -1  0  0
                       1 -1  0   0 -1  0   0 -1  1      -1  1  0   0  1  0   0  1 -1
                       0  0 -1   1  0 -1   0  1 -1       0  0  1  -1  0  1   0 -1  1
                      -1  1  0  -1  0  1  -1  0  0       1 -1  0   1  0 -1   1  0  0
           timopt          -1
            tnons      0.0000000  0.0000000  0.0000000     0.2500000  0.2500000  0.2500000
                       0.0000000  0.0000000  0.0000000     0.2500000  0.2500000  0.2500000
                       0.0000000  0.0000000  0.0000000     0.2500000  0.2500000  0.2500000
                       0.0000000  0.0000000  0.0000000     0.2500000  0.2500000  0.2500000
                       0.0000000  0.0000000  0.0000000     0.2500000  0.2500000  0.2500000
                       0.0000000  0.0000000  0.0000000     0.2500000  0.2500000  0.2500000
                       0.0000000  0.0000000  0.0000000     0.2500000  0.2500000  0.2500000
                       0.0000000  0.0000000  0.0000000     0.2500000  0.2500000  0.2500000
                       0.0000000  0.0000000  0.0000000     0.2500000  0.2500000  0.2500000
                       0.0000000  0.0000000  0.0000000     0.2500000  0.2500000  0.2500000
                       0.0000000  0.0000000  0.0000000     0.2500000  0.2500000  0.2500000
                       0.0000000  0.0000000  0.0000000     0.2500000  0.2500000  0.2500000
                       0.0000000  0.0000000  0.0000000     0.2500000  0.2500000  0.2500000
                       0.0000000  0.0000000  0.0000000     0.2500000  0.2500000  0.2500000
                       0.0000000  0.0000000  0.0000000     0.2500000  0.2500000  0.2500000
                       0.0000000  0.0000000  0.0000000     0.2500000  0.2500000  0.2500000
                       0.0000000  0.0000000  0.0000000     0.2500000  0.2500000  0.2500000
                       0.0000000  0.0000000  0.0000000     0.2500000  0.2500000  0.2500000
                       0.0000000  0.0000000  0.0000000     0.2500000  0.2500000  0.2500000
                       0.0000000  0.0000000  0.0000000     0.2500000  0.2500000  0.2500000
                       0.0000000  0.0000000  0.0000000     0.2500000  0.2500000  0.2500000
                       0.0000000  0.0000000  0.0000000     0.2500000  0.2500000  0.2500000
                       0.0000000  0.0000000  0.0000000     0.2500000  0.2500000  0.2500000
                       0.0000000  0.0000000  0.0000000     0.2500000  0.2500000  0.2500000
            typat      1  1
              wtk        0.00195    0.01563    0.01563    0.01563    0.00781    0.01172
                         0.04688    0.04688    0.04688    0.04688    0.04688    0.02344
                         0.01172    0.04688    0.04688    0.04688    0.02344    0.01172
                         0.04688    0.02344    0.00586    0.04688    0.09375    0.04688
                         0.04688    0.09375    0.04688    0.02344    0.01172
           xangst      0.0000000000E+00  0.0000000000E+00  0.0000000000E+00
                       8.9175000000E-01  8.9175000000E-01  8.9175000000E-01
            xcart      0.0000000000E+00  0.0000000000E+00  0.0000000000E+00
                       1.6851632790E+00  1.6851632790E+00  1.6851632790E+00
             xred      0.0000000000E+00  0.0000000000E+00  0.0000000000E+00
                       2.5000000000E-01  2.5000000000E-01  2.5000000000E-01
            znucl        6.00000

================================================================================

 chkinp: Checking input parameters for consistency, jdtset=   1.

 chkinp: Checking input parameters for consistency, jdtset=   2.

 chkinp: Checking input parameters for consistency, jdtset=   3.

 chkinp: Checking input parameters for consistency, jdtset=   4.

 chkinp: Checking input parameters for consistency, jdtset=   5.

 chkinp: Checking input parameters for consistency, jdtset=   6.

 chkinp: Checking input parameters for consistency, jdtset=   7.

 chkinp: Checking input parameters for consistency, jdtset=   8.

 chkinp: Checking input parameters for consistency, jdtset=   9.

 chkinp: Checking input parameters for consistency, jdtset=  10.

 chkinp: Checking input parameters for consistency, jdtset=  11.

 chkinp: Checking input parameters for consistency, jdtset=  12.

 chkinp: Checking input parameters for consistency, jdtset=  13.

 chkinp: Checking input parameters for consistency, jdtset=  14.

 chkinp: Checking input parameters for consistency, jdtset=  15.

================================================================================
== DATASET  1 ==================================================================
-   mpi_nproc: 512, omp_nthreads: -1 (-1 if OMP is not activated)


--- !DatasetInfo
iteration_state: {dtset: 1, }
dimensions: {natom: 2, nkpt: 29, mband: 480, nsppol: 1, nspinor: 1, nspden: 1, mpw: 941, }
cutoff_energies: {ecut:  40.0, pawecutdg:  -1.0, }
electrons: {nelect:   8.00000000E+00, charge:   0.00000000E+00, occopt:   1.00000000E+00, tsmear:   1.00000000E-02, }
meta: {optdriver: 6, }
...

 mkfilename: getwfk from: ../outdata_gs_DS2_WFK

 mkfilename: getden from: ../outdata_gs_DS1_DEN

 Exchange-correlation functional for the present dataset will be:
  GGA: Perdew-Burke-Ernzerhof functional - ixc=11
 Citation for XC functional:
  J.P.Perdew, K.Burke, M.Ernzerhof, PRL 77, 3865 (1996)

.Using single precision arithmetic; gwpc =  4

- Reading GS density from: ../outdata_gs_DS1_DEN




--- Pseudopotential description ------------------------------------------------
- pspini: atom type   1  psp file is ../C.psp8
- pspatm: opening atomic psp file    ../C.psp8
- C     ONCVPSP-3.2.3.1  r_core=   1.20440   1.26326
-  6.00000   4.00000    170503                znucl, zion, pspdat
    8   11    1    4       600   0.00000      pspcod,pspxc,lmax,lloc,mmax,r2well
    5.99000000000000    4.00000000000000    0.00000000000000   rchrg,fchrg,qchrg
     nproj     2     2
     extension_switch     1
  pspatm : epsatm=    4.31347020
         --- l  ekb(1:nproj) -->
             0    6.481548    0.385504
             1   -4.199961   -0.877517
 pspatm: atomic psp has been read  and splines computed

   6.90155232E+01                                ecore*ucvol(ha*bohr**3)
--------------------------------------------------------------------------------

 Total charge density [el/Bohr^3]
)     Maximum=    2.9605E-01  at reduced coord.    0.2000    0.2000    0.4333
)     Minimum=    1.3215E-02  at reduced coord.    0.5000    0.5000    0.5000
   Integrated=    8.0000E+00
- Reading GS states from WFK file: ../outdata_gs_DS2_WFK
  Mapping kBZ --> kIBZ
 Legend: bz = TS(ibz) + g0 where isym is the index of the symrec operation S and itim is 1 if TR is used.
        BZ                                       IBZ                                       ibz  isym  itim  g0
     1  [ 0.0000E+00,  0.0000E+00,  0.0000E+00]  [ 0.0000E+00,  0.0000E+00,  0.0000E+00]     1     1     0  [0, 0, 0]
     2  [ 1.2500E-01,  0.0000E+00,  0.0000E+00]  [ 1.2500E-01,  0.0000E+00,  0.0000E+00]     2     1     0  [0, 0, 0]
     3  [-1.2500E-01,  0.0000E+00,  0.0000E+00]  [ 1.2500E-01,  0.0000E+00,  0.0000E+00]     2     2     0  [0, 0, 0]
     4  [ 0.0000E+00,  0.0000E+00, -1.2500E-01]  [ 1.2500E-01,  0.0000E+00,  0.0000E+00]     2     4     0  [0, 0, 0]
     5  [ 0.0000E+00,  1.2500E-01,  0.0000E+00]  [ 1.2500E-01,  0.0000E+00,  0.0000E+00]     2     7     0  [0, 0, 0]
     6  [ 1.2500E-01,  1.2500E-01,  1.2500E-01]  [ 1.2500E-01,  0.0000E+00,  0.0000E+00]     2     6     0  [0, 0, 0]
     7  [-1.2500E-01, -1.2500E-01, -1.2500E-01]  [ 1.2500E-01,  0.0000E+00,  0.0000E+00]     2     5     0  [0, 0, 0]
     8  [ 0.0000E+00, -1.2500E-01,  0.0000E+00]  [ 1.2500E-01,  0.0000E+00,  0.0000E+00]     2     8     0  [0, 0, 0]
     9  [ 0.0000E+00,  0.0000E+00,  1.2500E-01]  [ 1.2500E-01,  0.0000E+00,  0.0000E+00]     2     3     0  [0, 0, 0]
    10  [ 2.5000E-01,  0.0000E+00,  0.0000E+00]  [ 2.5000E-01,  0.0000E+00,  0.0000E+00]     3     1     0  [0, 0, 0]
    11  [ 2.5000E-01,  2.5000E-01,  2.5000E-01]  [ 2.5000E-01,  0.0000E+00,  0.0000E+00]     3     6     0  [0, 0, 0]
    12  [ 0.0000E+00,  2.5000E-01,  0.0000E+00]  [ 2.5000E-01,  0.0000E+00,  0.0000E+00]     3     7     0  [0, 0, 0]
    13  [ 0.0000E+00, -2.5000E-01,  0.0000E+00]  [ 2.5000E-01,  0.0000E+00,  0.0000E+00]     3     8     0  [0, 0, 0]
    14  [-2.5000E-01,  0.0000E+00,  0.0000E+00]  [ 2.5000E-01,  0.0000E+00,  0.0000E+00]     3     2     0  [0, 0, 0]
    15  [ 0.0000E+00,  0.0000E+00,  2.5000E-01]  [ 2.5000E-01,  0.0000E+00,  0.0000E+00]     3     3     0  [0, 0, 0]
    16  [ 0.0000E+00,  0.0000E+00, -2.5000E-01]  [ 2.5000E-01,  0.0000E+00,  0.0000E+00]     3     4     0  [0, 0, 0]
    17  [-2.5000E-01, -2.5000E-01, -2.5000E-01]  [ 2.5000E-01,  0.0000E+00,  0.0000E+00]     3     5     0  [0, 0, 0]
    18  [ 3.7500E-01,  0.0000E+00,  0.0000E+00]  [ 3.7500E-01,  0.0000E+00,  0.0000E+00]     4     1     0  [0, 0, 0]
    19  [-3.7500E-01, -3.7500E-01, -3.7500E-01]  [ 3.7500E-01,  0.0000E+00,  0.0000E+00]     4     5     0  [0, 0, 0]
    20  [ 0.0000E+00,  0.0000E+00, -3.7500E-01]  [ 3.7500E-01,  0.0000E+00,  0.0000E+00]     4     4     0  [0, 0, 0]
prtvol = 0, max 20 points are written


  Mapping qBZ --> qIBZ
 Legend: bz = TS(ibz) + g0 where isym is the index of the symrec operation S and itim is 1 if TR is used.
        BZ                                       IBZ                                       ibz  isym  itim  g0
     1  [ 0.0000E+00,  0.0000E+00,  0.0000E+00]  [ 0.0000E+00,  0.0000E+00,  0.0000E+00]     1     1     0  [0, 0, 0]
     2  [ 1.2500E-01,  0.0000E+00,  0.0000E+00]  [ 1.2500E-01,  0.0000E+00,  0.0000E+00]     2     1     0  [0, 0, 0]
     3  [-1.2500E-01,  0.0000E+00,  0.0000E+00]  [ 1.2500E-01,  0.0000E+00,  0.0000E+00]     2     2     0  [0, 0, 0]
     4  [ 0.0000E+00,  0.0000E+00, -1.2500E-01]  [ 1.2500E-01,  0.0000E+00,  0.0000E+00]     2     4     0  [0, 0, 0]
     5  [ 0.0000E+00,  1.2500E-01,  0.0000E+00]  [ 1.2500E-01,  0.0000E+00,  0.0000E+00]     2     7     0  [0, 0, 0]
     6  [ 1.2500E-01,  1.2500E-01,  1.2500E-01]  [ 1.2500E-01,  0.0000E+00,  0.0000E+00]     2     6     0  [0, 0, 0]
     7  [-1.2500E-01, -1.2500E-01, -1.2500E-01]  [ 1.2500E-01,  0.0000E+00,  0.0000E+00]     2     5     0  [0, 0, 0]
     8  [ 0.0000E+00, -1.2500E-01,  0.0000E+00]  [ 1.2500E-01,  0.0000E+00,  0.0000E+00]     2     8     0  [0, 0, 0]
     9  [ 0.0000E+00,  0.0000E+00,  1.2500E-01]  [ 1.2500E-01,  0.0000E+00,  0.0000E+00]     2     3     0  [0, 0, 0]
    10  [ 2.5000E-01,  0.0000E+00,  0.0000E+00]  [ 2.5000E-01,  0.0000E+00,  0.0000E+00]     3     1     0  [0, 0, 0]
    11  [ 2.5000E-01,  2.5000E-01,  2.5000E-01]  [ 2.5000E-01,  0.0000E+00,  0.0000E+00]     3     6     0  [0, 0, 0]
    12  [ 0.0000E+00,  2.5000E-01,  0.0000E+00]  [ 2.5000E-01,  0.0000E+00,  0.0000E+00]     3     7     0  [0, 0, 0]
    13  [ 0.0000E+00, -2.5000E-01,  0.0000E+00]  [ 2.5000E-01,  0.0000E+00,  0.0000E+00]     3     8     0  [0, 0, 0]
    14  [-2.5000E-01,  0.0000E+00,  0.0000E+00]  [ 2.5000E-01,  0.0000E+00,  0.0000E+00]     3     2     0  [0, 0, 0]
    15  [ 0.0000E+00,  0.0000E+00,  2.5000E-01]  [ 2.5000E-01,  0.0000E+00,  0.0000E+00]     3     3     0  [0, 0, 0]
    16  [ 0.0000E+00,  0.0000E+00, -2.5000E-01]  [ 2.5000E-01,  0.0000E+00,  0.0000E+00]     3     4     0  [0, 0, 0]
    17  [-2.5000E-01, -2.5000E-01, -2.5000E-01]  [ 2.5000E-01,  0.0000E+00,  0.0000E+00]     3     5     0  [0, 0, 0]
    18  [ 3.7500E-01,  0.0000E+00,  0.0000E+00]  [ 3.7500E-01,  0.0000E+00,  0.0000E+00]     4     1     0  [0, 0, 0]
    19  [-3.7500E-01, -3.7500E-01, -3.7500E-01]  [ 3.7500E-01,  0.0000E+00,  0.0000E+00]     4     5     0  [0, 0, 0]
    20  [ 0.0000E+00,  0.0000E+00, -3.7500E-01]  [ 3.7500E-01,  0.0000E+00,  0.0000E+00]     4     4     0  [0, 0, 0]
prtvol = 0, max 20 points are written



 === Kohn-Sham gaps and band edges from IBZ mesh ===
 Indirect band gap semiconductor
 Fundamental gap:     4.189 (eV)
   VBM:    -2.094 (eV) at k: [ 0.0000E+00,  0.0000E+00,  0.0000E+00]
   CBM:     2.094 (eV) at k: [ 3.7500E-01,  3.7500E-01,  0.0000E+00]
 Direct gap:         5.624 (eV) at k: [ 0.0000E+00,  0.0000E+00,  0.0000E+00]


 ==== FFT mesh for Green's function ====
  FFT mesh divisions ........................    15   15   15
  Augmented FFT divisions ...................    15   15   15
  FFT algorithm .............................   312
  FFT cache size ............................    16
- FFT uc_batch_size: 4
- FFT sc_batch_size: 4
 ==== Info on the GWR object ====

--- !GWR_params
iteration_state: {dtset: 1, }
gwr_task: RPA_ENERGY
nband: 480
ntau: 6
ngkpt: [8, 8, 8, ]
ngqpt: [8, 8, 8, ]
chi_algo: supercell
sigma_algo: 'BZ-convolutions'
nkibz: 29
nqibz: 29
inclvkb: 2
q0: [  1.00000000E-05,   2.00000000E-05,   3.00000000E-05, ]
gw_icutcoul: 6
green_mpw: 941
tchi_mpw: 169
g_ngfft: [15, 15, 15, 15, 15, 15, ]
P gwr_np_kgts: [4, 64, 2, 1, ]
P np_kibz: [
    1, 1, 1, 1, 1, 1, 1, 1, 
    1, 2, 1, 1, 1, 1, 1, 1, 
    2, 1, 1, 1, 1, 1, 1, 2, 
    1, 1, 1, 1, 1, 
]
P np_qibz: [
    1, 1, 1, 1, 1, 1, 1, 1, 
    1, 2, 1, 1, 1, 1, 1, 1, 
    2, 1, 1, 1, 1, 1, 1, 2, 
    1, 1, 1, 1, 1, 
]
min_transition_energy_eV:   1.53939108E-01
max_transition_energy_eV:   2.59049143E+01
eratio:   1.68280268E+02
ft_max_err_t2w_cos:   4.84429012E-03
ft_max_err_w2t_cos:   4.28326690E-03
ft_max_err_t2w_sin:   1.44445211E-01
cosft_duality_error:   4.47995109E-04
Minimax imaginary tau/omega mesh: !Tabular | # tau, weight(tau), omega, weight(omega)
    1 1.67378E-02   4.58112E-02   6.09358E-02   1.29065E-01
    2 1.17364E-01   1.78933E-01   2.31332E-01   2.35523E-01
    3 4.57058E-01   5.65214E-01   6.12090E-01   5.93544E-01
    4 1.45157E+00   1.57637E+00   1.67942E+00   1.78312E+00
    5 4.08063E+00   4.03652E+00   5.24286E+00   6.44855E+00
    6 1.07429E+01   1.04098E+01   2.07984E+01   3.31567E+01
...


 Computing chi0 head and wings with inclvkb: 2
 Using KS orbitals and KS energies...


 ==== FFT mesh for chi0 head/wings computation ====
  FFT mesh divisions ........................    30   30   30
  Augmented FFT divisions ...................    31   31   30
  FFT algorithm .............................   312
  FFT cache size ............................    16


 Building Green's functions from KS orbitals and KS energies...

        ecut_chi ecut_chi^(-3/2)     RPA Ec (eV)     RPA Ec (Ha)
  9.60000000E+00  3.36196471E-02 -1.35406116E+01 -4.97608340E-01
  1.02000000E+01  3.06972692E-02 -1.36080496E+01 -5.00086644E-01
  1.08000000E+01  2.81750287E-02 -1.36610193E+01 -5.02033243E-01
  1.14000000E+01  2.59802139E-02 -1.37098370E+01 -5.03827261E-01
  1.20000000E+01  2.40562612E-02 -1.37539684E+01 -5.05449060E-01
              oo               0 -1.42865123E+01 -5.25019689E-01

================================================================================
== DATASET  2 ==================================================================
-   mpi_nproc: 512, omp_nthreads: -1 (-1 if OMP is not activated)


--- !DatasetInfo
iteration_state: {dtset: 2, }
dimensions: {natom: 2, nkpt: 29, mband: 480, nsppol: 1, nspinor: 1, nspden: 1, mpw: 941, }
cutoff_energies: {ecut:  40.0, pawecutdg:  -1.0, }
electrons: {nelect:   8.00000000E+00, charge:   0.00000000E+00, occopt:   1.00000000E+00, tsmear:   1.00000000E-02, }
meta: {optdriver: 6, }
...

 mkfilename: getwfk from: ../outdata_gs_DS2_WFK

 mkfilename: getden from: ../outdata_gs_DS1_DEN

 Exchange-correlation functional for the present dataset will be:
  GGA: Perdew-Burke-Ernzerhof functional - ixc=11
 Citation for XC functional:
  J.P.Perdew, K.Burke, M.Ernzerhof, PRL 77, 3865 (1996)

.Using single precision arithmetic; gwpc =  4

- Reading GS density from: ../outdata_gs_DS1_DEN



--------------------------------------------------------------------------------

 Total charge density [el/Bohr^3]
)     Maximum=    2.9605E-01  at reduced coord.    0.2000    0.2000    0.4333
)     Minimum=    1.3215E-02  at reduced coord.    0.5000    0.5000    0.5000
   Integrated=    8.0000E+00
- Reading GS states from WFK file: ../outdata_gs_DS2_WFK
  Mapping kBZ --> kIBZ
 Legend: bz = TS(ibz) + g0 where isym is the index of the symrec operation S and itim is 1 if TR is used.
        BZ                                       IBZ                                       ibz  isym  itim  g0
     1  [ 0.0000E+00,  0.0000E+00,  0.0000E+00]  [ 0.0000E+00,  0.0000E+00,  0.0000E+00]     1     1     0  [0, 0, 0]
     2  [ 1.2500E-01,  0.0000E+00,  0.0000E+00]  [ 1.2500E-01,  0.0000E+00,  0.0000E+00]     2     1     0  [0, 0, 0]
     3  [-1.2500E-01,  0.0000E+00,  0.0000E+00]  [ 1.2500E-01,  0.0000E+00,  0.0000E+00]     2     2     0  [0, 0, 0]
     4  [ 0.0000E+00,  0.0000E+00, -1.2500E-01]  [ 1.2500E-01,  0.0000E+00,  0.0000E+00]     2     4     0  [0, 0, 0]
     5  [ 0.0000E+00,  1.2500E-01,  0.0000E+00]  [ 1.2500E-01,  0.0000E+00,  0.0000E+00]     2     7     0  [0, 0, 0]
     6  [ 1.2500E-01,  1.2500E-01,  1.2500E-01]  [ 1.2500E-01,  0.0000E+00,  0.0000E+00]     2     6     0  [0, 0, 0]
     7  [-1.2500E-01, -1.2500E-01, -1.2500E-01]  [ 1.2500E-01,  0.0000E+00,  0.0000E+00]     2     5     0  [0, 0, 0]
     8  [ 0.0000E+00, -1.2500E-01,  0.0000E+00]  [ 1.2500E-01,  0.0000E+00,  0.0000E+00]     2     8     0  [0, 0, 0]
     9  [ 0.0000E+00,  0.0000E+00,  1.2500E-01]  [ 1.2500E-01,  0.0000E+00,  0.0000E+00]     2     3     0  [0, 0, 0]
    10  [ 2.5000E-01,  0.0000E+00,  0.0000E+00]  [ 2.5000E-01,  0.0000E+00,  0.0000E+00]     3     1     0  [0, 0, 0]
    11  [ 2.5000E-01,  2.5000E-01,  2.5000E-01]  [ 2.5000E-01,  0.0000E+00,  0.0000E+00]     3     6     0  [0, 0, 0]
    12  [ 0.0000E+00,  2.5000E-01,  0.0000E+00]  [ 2.5000E-01,  0.0000E+00,  0.0000E+00]     3     7     0  [0, 0, 0]
    13  [ 0.0000E+00, -2.5000E-01,  0.0000E+00]  [ 2.5000E-01,  0.0000E+00,  0.0000E+00]     3     8     0  [0, 0, 0]
    14  [-2.5000E-01,  0.0000E+00,  0.0000E+00]  [ 2.5000E-01,  0.0000E+00,  0.0000E+00]     3     2     0  [0, 0, 0]
    15  [ 0.0000E+00,  0.0000E+00,  2.5000E-01]  [ 2.5000E-01,  0.0000E+00,  0.0000E+00]     3     3     0  [0, 0, 0]
    16  [ 0.0000E+00,  0.0000E+00, -2.5000E-01]  [ 2.5000E-01,  0.0000E+00,  0.0000E+00]     3     4     0  [0, 0, 0]
    17  [-2.5000E-01, -2.5000E-01, -2.5000E-01]  [ 2.5000E-01,  0.0000E+00,  0.0000E+00]     3     5     0  [0, 0, 0]
    18  [ 3.7500E-01,  0.0000E+00,  0.0000E+00]  [ 3.7500E-01,  0.0000E+00,  0.0000E+00]     4     1     0  [0, 0, 0]
    19  [-3.7500E-01, -3.7500E-01, -3.7500E-01]  [ 3.7500E-01,  0.0000E+00,  0.0000E+00]     4     5     0  [0, 0, 0]
    20  [ 0.0000E+00,  0.0000E+00, -3.7500E-01]  [ 3.7500E-01,  0.0000E+00,  0.0000E+00]     4     4     0  [0, 0, 0]
prtvol = 0, max 20 points are written


  Mapping qBZ --> qIBZ
 Legend: bz = TS(ibz) + g0 where isym is the index of the symrec operation S and itim is 1 if TR is used.
        BZ                                       IBZ                                       ibz  isym  itim  g0
     1  [ 0.0000E+00,  0.0000E+00,  0.0000E+00]  [ 0.0000E+00,  0.0000E+00,  0.0000E+00]     1     1     0  [0, 0, 0]
     2  [ 1.2500E-01,  0.0000E+00,  0.0000E+00]  [ 1.2500E-01,  0.0000E+00,  0.0000E+00]     2     1     0  [0, 0, 0]
     3  [-1.2500E-01,  0.0000E+00,  0.0000E+00]  [ 1.2500E-01,  0.0000E+00,  0.0000E+00]     2     2     0  [0, 0, 0]
     4  [ 0.0000E+00,  0.0000E+00, -1.2500E-01]  [ 1.2500E-01,  0.0000E+00,  0.0000E+00]     2     4     0  [0, 0, 0]
     5  [ 0.0000E+00,  1.2500E-01,  0.0000E+00]  [ 1.2500E-01,  0.0000E+00,  0.0000E+00]     2     7     0  [0, 0, 0]
     6  [ 1.2500E-01,  1.2500E-01,  1.2500E-01]  [ 1.2500E-01,  0.0000E+00,  0.0000E+00]     2     6     0  [0, 0, 0]
     7  [-1.2500E-01, -1.2500E-01, -1.2500E-01]  [ 1.2500E-01,  0.0000E+00,  0.0000E+00]     2     5     0  [0, 0, 0]
     8  [ 0.0000E+00, -1.2500E-01,  0.0000E+00]  [ 1.2500E-01,  0.0000E+00,  0.0000E+00]     2     8     0  [0, 0, 0]
     9  [ 0.0000E+00,  0.0000E+00,  1.2500E-01]  [ 1.2500E-01,  0.0000E+00,  0.0000E+00]     2     3     0  [0, 0, 0]
    10  [ 2.5000E-01,  0.0000E+00,  0.0000E+00]  [ 2.5000E-01,  0.0000E+00,  0.0000E+00]     3     1     0  [0, 0, 0]
    11  [ 2.5000E-01,  2.5000E-01,  2.5000E-01]  [ 2.5000E-01,  0.0000E+00,  0.0000E+00]     3     6     0  [0, 0, 0]
    12  [ 0.0000E+00,  2.5000E-01,  0.0000E+00]  [ 2.5000E-01,  0.0000E+00,  0.0000E+00]     3     7     0  [0, 0, 0]
    13  [ 0.0000E+00, -2.5000E-01,  0.0000E+00]  [ 2.5000E-01,  0.0000E+00,  0.0000E+00]     3     8     0  [0, 0, 0]
    14  [-2.5000E-01,  0.0000E+00,  0.0000E+00]  [ 2.5000E-01,  0.0000E+00,  0.0000E+00]     3     2     0  [0, 0, 0]
    15  [ 0.0000E+00,  0.0000E+00,  2.5000E-01]  [ 2.5000E-01,  0.0000E+00,  0.0000E+00]     3     3     0  [0, 0, 0]
    16  [ 0.0000E+00,  0.0000E+00, -2.5000E-01]  [ 2.5000E-01,  0.0000E+00,  0.0000E+00]     3     4     0  [0, 0, 0]
    17  [-2.5000E-01, -2.5000E-01, -2.5000E-01]  [ 2.5000E-01,  0.0000E+00,  0.0000E+00]     3     5     0  [0, 0, 0]
    18  [ 3.7500E-01,  0.0000E+00,  0.0000E+00]  [ 3.7500E-01,  0.0000E+00,  0.0000E+00]     4     1     0  [0, 0, 0]
    19  [-3.7500E-01, -3.7500E-01, -3.7500E-01]  [ 3.7500E-01,  0.0000E+00,  0.0000E+00]     4     5     0  [0, 0, 0]
    20  [ 0.0000E+00,  0.0000E+00, -3.7500E-01]  [ 3.7500E-01,  0.0000E+00,  0.0000E+00]     4     4     0  [0, 0, 0]
prtvol = 0, max 20 points are written



 === Kohn-Sham gaps and band edges from IBZ mesh ===
 Indirect band gap semiconductor
 Fundamental gap:     4.189 (eV)
   VBM:    -2.094 (eV) at k: [ 0.0000E+00,  0.0000E+00,  0.0000E+00]
   CBM:     2.094 (eV) at k: [ 3.7500E-01,  3.7500E-01,  0.0000E+00]
 Direct gap:         5.624 (eV) at k: [ 0.0000E+00,  0.0000E+00,  0.0000E+00]


 ==== FFT mesh for Green's function ====
  FFT mesh divisions ........................    15   15   15
  Augmented FFT divisions ...................    15   15   15
  FFT algorithm .............................   312
  FFT cache size ............................    16
- FFT uc_batch_size: 4
- FFT sc_batch_size: 4
 ==== Info on the GWR object ====

--- !GWR_params
iteration_state: {dtset: 2, }
gwr_task: RPA_ENERGY
nband: 480
ntau: 8
ngkpt: [8, 8, 8, ]
ngqpt: [8, 8, 8, ]
chi_algo: supercell
sigma_algo: 'BZ-convolutions'
nkibz: 29
nqibz: 29
inclvkb: 2
q0: [  1.00000000E-05,   2.00000000E-05,   3.00000000E-05, ]
gw_icutcoul: 6
green_mpw: 941
tchi_mpw: 169
g_ngfft: [15, 15, 15, 15, 15, 15, ]
P gwr_np_kgts: [4, 64, 2, 1, ]
P np_kibz: [
    1, 1, 1, 1, 1, 1, 1, 1, 
    1, 2, 1, 1, 1, 1, 1, 1, 
    2, 1, 1, 1, 1, 1, 1, 2, 
    1, 1, 1, 1, 1, 
]
P np_qibz: [
    1, 1, 1, 1, 1, 1, 1, 1, 
    1, 2, 1, 1, 1, 1, 1, 1, 
    2, 1, 1, 1, 1, 1, 1, 2, 
    1, 1, 1, 1, 1, 
]
min_transition_energy_eV:   1.53939108E-01
max_transition_energy_eV:   2.59049143E+01
eratio:   1.68280268E+02
ft_max_err_t2w_cos:   1.81247871E-03
ft_max_err_w2t_cos:   7.08993136E-04
ft_max_err_t2w_sin:   3.87625310E-02
cosft_duality_error:   1.99577641E-03
Minimax imaginary tau/omega mesh: !Tabular | # tau, weight(tau), omega, weight(omega)
    1 1.16938E-02   3.08806E-02   4.96827E-02   1.03197E-01
    2 7.02669E-02   9.31504E-02   1.73726E-01   1.55441E-01
    3 2.22208E-01   2.29522E-01   3.90414E-01   2.99459E-01
    4 5.85816E-01   5.37987E-01   8.39731E-01   6.50619E-01
    5 1.41403E+00   1.19921E+00   1.86123E+00   1.52818E+00
    6 3.21382E+00   2.56010E+00   4.36926E+00   3.88642E+00
    7 6.99955E+00   5.35160E+00   1.11526E+01   1.10950E+01
    8 1.50897E+01   1.19308E+01   3.39454E+01   4.47807E+01
...


 Computing chi0 head and wings with inclvkb: 2
 Using KS orbitals and KS energies...


 ==== FFT mesh for chi0 head/wings computation ====
  FFT mesh divisions ........................    30   30   30
  Augmented FFT divisions ...................    31   31   30
  FFT algorithm .............................   312
  FFT cache size ............................    16


 Building Green's functions from KS orbitals and KS energies...

        ecut_chi ecut_chi^(-3/2)     RPA Ec (eV)     RPA Ec (Ha)
  9.60000000E+00  3.36196471E-02 -1.35407890E+01 -4.97614863E-01
  1.02000000E+01  3.06972692E-02 -1.36082197E+01 -5.00092894E-01
  1.08000000E+01  2.81750287E-02 -1.36612049E+01 -5.02040066E-01
  1.14000000E+01  2.59802139E-02 -1.37100585E+01 -5.03835403E-01
  1.20000000E+01  2.40562612E-02 -1.37542424E+01 -5.05459129E-01
              oo               0 -1.42869967E+01 -5.25037491E-01

================================================================================
== DATASET  3 ==================================================================
-   mpi_nproc: 512, omp_nthreads: -1 (-1 if OMP is not activated)


--- !DatasetInfo
iteration_state: {dtset: 3, }
dimensions: {natom: 2, nkpt: 29, mband: 480, nsppol: 1, nspinor: 1, nspden: 1, mpw: 941, }
cutoff_energies: {ecut:  40.0, pawecutdg:  -1.0, }
electrons: {nelect:   8.00000000E+00, charge:   0.00000000E+00, occopt:   1.00000000E+00, tsmear:   1.00000000E-02, }
meta: {optdriver: 6, }
...

 mkfilename: getwfk from: ../outdata_gs_DS2_WFK

 mkfilename: getden from: ../outdata_gs_DS1_DEN

 Exchange-correlation functional for the present dataset will be:
  GGA: Perdew-Burke-Ernzerhof functional - ixc=11
 Citation for XC functional:
  J.P.Perdew, K.Burke, M.Ernzerhof, PRL 77, 3865 (1996)

.Using single precision arithmetic; gwpc =  4

- Reading GS density from: ../outdata_gs_DS1_DEN



--------------------------------------------------------------------------------

 Total charge density [el/Bohr^3]
)     Maximum=    2.9605E-01  at reduced coord.    0.2000    0.2000    0.4333
)     Minimum=    1.3215E-02  at reduced coord.    0.5000    0.5000    0.5000
   Integrated=    8.0000E+00
- Reading GS states from WFK file: ../outdata_gs_DS2_WFK
  Mapping kBZ --> kIBZ
 Legend: bz = TS(ibz) + g0 where isym is the index of the symrec operation S and itim is 1 if TR is used.
        BZ                                       IBZ                                       ibz  isym  itim  g0
     1  [ 0.0000E+00,  0.0000E+00,  0.0000E+00]  [ 0.0000E+00,  0.0000E+00,  0.0000E+00]     1     1     0  [0, 0, 0]
     2  [ 1.2500E-01,  0.0000E+00,  0.0000E+00]  [ 1.2500E-01,  0.0000E+00,  0.0000E+00]     2     1     0  [0, 0, 0]
     3  [-1.2500E-01,  0.0000E+00,  0.0000E+00]  [ 1.2500E-01,  0.0000E+00,  0.0000E+00]     2     2     0  [0, 0, 0]
     4  [ 0.0000E+00,  0.0000E+00, -1.2500E-01]  [ 1.2500E-01,  0.0000E+00,  0.0000E+00]     2     4     0  [0, 0, 0]
     5  [ 0.0000E+00,  1.2500E-01,  0.0000E+00]  [ 1.2500E-01,  0.0000E+00,  0.0000E+00]     2     7     0  [0, 0, 0]
     6  [ 1.2500E-01,  1.2500E-01,  1.2500E-01]  [ 1.2500E-01,  0.0000E+00,  0.0000E+00]     2     6     0  [0, 0, 0]
     7  [-1.2500E-01, -1.2500E-01, -1.2500E-01]  [ 1.2500E-01,  0.0000E+00,  0.0000E+00]     2     5     0  [0, 0, 0]
     8  [ 0.0000E+00, -1.2500E-01,  0.0000E+00]  [ 1.2500E-01,  0.0000E+00,  0.0000E+00]     2     8     0  [0, 0, 0]
     9  [ 0.0000E+00,  0.0000E+00,  1.2500E-01]  [ 1.2500E-01,  0.0000E+00,  0.0000E+00]     2     3     0  [0, 0, 0]
    10  [ 2.5000E-01,  0.0000E+00,  0.0000E+00]  [ 2.5000E-01,  0.0000E+00,  0.0000E+00]     3     1     0  [0, 0, 0]
    11  [ 2.5000E-01,  2.5000E-01,  2.5000E-01]  [ 2.5000E-01,  0.0000E+00,  0.0000E+00]     3     6     0  [0, 0, 0]
    12  [ 0.0000E+00,  2.5000E-01,  0.0000E+00]  [ 2.5000E-01,  0.0000E+00,  0.0000E+00]     3     7     0  [0, 0, 0]
    13  [ 0.0000E+00, -2.5000E-01,  0.0000E+00]  [ 2.5000E-01,  0.0000E+00,  0.0000E+00]     3     8     0  [0, 0, 0]
    14  [-2.5000E-01,  0.0000E+00,  0.0000E+00]  [ 2.5000E-01,  0.0000E+00,  0.0000E+00]     3     2     0  [0, 0, 0]
    15  [ 0.0000E+00,  0.0000E+00,  2.5000E-01]  [ 2.5000E-01,  0.0000E+00,  0.0000E+00]     3     3     0  [0, 0, 0]
    16  [ 0.0000E+00,  0.0000E+00, -2.5000E-01]  [ 2.5000E-01,  0.0000E+00,  0.0000E+00]     3     4     0  [0, 0, 0]
    17  [-2.5000E-01, -2.5000E-01, -2.5000E-01]  [ 2.5000E-01,  0.0000E+00,  0.0000E+00]     3     5     0  [0, 0, 0]
    18  [ 3.7500E-01,  0.0000E+00,  0.0000E+00]  [ 3.7500E-01,  0.0000E+00,  0.0000E+00]     4     1     0  [0, 0, 0]
    19  [-3.7500E-01, -3.7500E-01, -3.7500E-01]  [ 3.7500E-01,  0.0000E+00,  0.0000E+00]     4     5     0  [0, 0, 0]
    20  [ 0.0000E+00,  0.0000E+00, -3.7500E-01]  [ 3.7500E-01,  0.0000E+00,  0.0000E+00]     4     4     0  [0, 0, 0]
prtvol = 0, max 20 points are written


  Mapping qBZ --> qIBZ
 Legend: bz = TS(ibz) + g0 where isym is the index of the symrec operation S and itim is 1 if TR is used.
        BZ                                       IBZ                                       ibz  isym  itim  g0
     1  [ 0.0000E+00,  0.0000E+00,  0.0000E+00]  [ 0.0000E+00,  0.0000E+00,  0.0000E+00]     1     1     0  [0, 0, 0]
     2  [ 1.2500E-01,  0.0000E+00,  0.0000E+00]  [ 1.2500E-01,  0.0000E+00,  0.0000E+00]     2     1     0  [0, 0, 0]
     3  [-1.2500E-01,  0.0000E+00,  0.0000E+00]  [ 1.2500E-01,  0.0000E+00,  0.0000E+00]     2     2     0  [0, 0, 0]
     4  [ 0.0000E+00,  0.0000E+00, -1.2500E-01]  [ 1.2500E-01,  0.0000E+00,  0.0000E+00]     2     4     0  [0, 0, 0]
     5  [ 0.0000E+00,  1.2500E-01,  0.0000E+00]  [ 1.2500E-01,  0.0000E+00,  0.0000E+00]     2     7     0  [0, 0, 0]
     6  [ 1.2500E-01,  1.2500E-01,  1.2500E-01]  [ 1.2500E-01,  0.0000E+00,  0.0000E+00]     2     6     0  [0, 0, 0]
     7  [-1.2500E-01, -1.2500E-01, -1.2500E-01]  [ 1.2500E-01,  0.0000E+00,  0.0000E+00]     2     5     0  [0, 0, 0]
     8  [ 0.0000E+00, -1.2500E-01,  0.0000E+00]  [ 1.2500E-01,  0.0000E+00,  0.0000E+00]     2     8     0  [0, 0, 0]
     9  [ 0.0000E+00,  0.0000E+00,  1.2500E-01]  [ 1.2500E-01,  0.0000E+00,  0.0000E+00]     2     3     0  [0, 0, 0]
    10  [ 2.5000E-01,  0.0000E+00,  0.0000E+00]  [ 2.5000E-01,  0.0000E+00,  0.0000E+00]     3     1     0  [0, 0, 0]
    11  [ 2.5000E-01,  2.5000E-01,  2.5000E-01]  [ 2.5000E-01,  0.0000E+00,  0.0000E+00]     3     6     0  [0, 0, 0]
    12  [ 0.0000E+00,  2.5000E-01,  0.0000E+00]  [ 2.5000E-01,  0.0000E+00,  0.0000E+00]     3     7     0  [0, 0, 0]
    13  [ 0.0000E+00, -2.5000E-01,  0.0000E+00]  [ 2.5000E-01,  0.0000E+00,  0.0000E+00]     3     8     0  [0, 0, 0]
    14  [-2.5000E-01,  0.0000E+00,  0.0000E+00]  [ 2.5000E-01,  0.0000E+00,  0.0000E+00]     3     2     0  [0, 0, 0]
    15  [ 0.0000E+00,  0.0000E+00,  2.5000E-01]  [ 2.5000E-01,  0.0000E+00,  0.0000E+00]     3     3     0  [0, 0, 0]
    16  [ 0.0000E+00,  0.0000E+00, -2.5000E-01]  [ 2.5000E-01,  0.0000E+00,  0.0000E+00]     3     4     0  [0, 0, 0]
    17  [-2.5000E-01, -2.5000E-01, -2.5000E-01]  [ 2.5000E-01,  0.0000E+00,  0.0000E+00]     3     5     0  [0, 0, 0]
    18  [ 3.7500E-01,  0.0000E+00,  0.0000E+00]  [ 3.7500E-01,  0.0000E+00,  0.0000E+00]     4     1     0  [0, 0, 0]
    19  [-3.7500E-01, -3.7500E-01, -3.7500E-01]  [ 3.7500E-01,  0.0000E+00,  0.0000E+00]     4     5     0  [0, 0, 0]
    20  [ 0.0000E+00,  0.0000E+00, -3.7500E-01]  [ 3.7500E-01,  0.0000E+00,  0.0000E+00]     4     4     0  [0, 0, 0]
prtvol = 0, max 20 points are written



 === Kohn-Sham gaps and band edges from IBZ mesh ===
 Indirect band gap semiconductor
 Fundamental gap:     4.189 (eV)
   VBM:    -2.094 (eV) at k: [ 0.0000E+00,  0.0000E+00,  0.0000E+00]
   CBM:     2.094 (eV) at k: [ 3.7500E-01,  3.7500E-01,  0.0000E+00]
 Direct gap:         5.624 (eV) at k: [ 0.0000E+00,  0.0000E+00,  0.0000E+00]


 ==== FFT mesh for Green's function ====
  FFT mesh divisions ........................    15   15   15
  Augmented FFT divisions ...................    15   15   15
  FFT algorithm .............................   312
  FFT cache size ............................    16
- FFT uc_batch_size: 4
- FFT sc_batch_size: 4
 ==== Info on the GWR object ====

--- !GWR_params
iteration_state: {dtset: 3, }
gwr_task: RPA_ENERGY
nband: 480
ntau: 10
ngkpt: [8, 8, 8, ]
ngqpt: [8, 8, 8, ]
chi_algo: supercell
sigma_algo: 'BZ-convolutions'
nkibz: 29
nqibz: 29
inclvkb: 2
q0: [  1.00000000E-05,   2.00000000E-05,   3.00000000E-05, ]
gw_icutcoul: 6
green_mpw: 941
tchi_mpw: 169
g_ngfft: [15, 15, 15, 15, 15, 15, ]
P gwr_np_kgts: [4, 64, 2, 1, ]
P np_kibz: [
    1, 1, 1, 1, 1, 1, 1, 1, 
    1, 2, 1, 1, 1, 1, 1, 1, 
    2, 1, 1, 1, 1, 1, 1, 2, 
    1, 1, 1, 1, 1, 
]
P np_qibz: [
    1, 1, 1, 1, 1, 1, 1, 1, 
    1, 2, 1, 1, 1, 1, 1, 1, 
    2, 1, 1, 1, 1, 1, 1, 2, 
    1, 1, 1, 1, 1, 
]
min_transition_energy_eV:   1.53939108E-01
max_transition_energy_eV:   2.59049143E+01
eratio:   1.68280268E+02
ft_max_err_t2w_cos:   1.07255017E-03
ft_max_err_w2t_cos:   4.33144596E-04
ft_max_err_t2w_sin:   1.00482299E-02
cosft_duality_error:   7.89405712E-02
Minimax imaginary tau/omega mesh: !Tabular | # tau, weight(tau), omega, weight(omega)
    1 9.04791E-03   2.36007E-02   4.25311E-02   8.74372E-02
    2 5.12987E-02   6.36427E-02   1.42554E-01   1.18564E-01
    3 1.45669E-01   1.32268E-01   2.95020E-01   1.96523E-01
    4 3.37122E-01   2.65502E-01   5.64052E-01   3.61377E-01
    5 7.17769E-01   5.23343E-01   1.07568E+00   7.03456E-01
    6 1.45830E+00   1.00706E+00   2.09599E+00   1.42918E+00
    7 2.86442E+00   1.89275E+00   4.21918E+00   3.03306E+00
    8 5.48089E+00   3.49956E+00   8.86172E+00   6.80857E+00
    9 1.03179E+01   6.50467E+00   1.98543E+01   1.70298E+01
    10 1.96428E+01   1.32465E+01   5.30827E+01   6.42180E+01
...


 Computing chi0 head and wings with inclvkb: 2
 Using KS orbitals and KS energies...


 ==== FFT mesh for chi0 head/wings computation ====
  FFT mesh divisions ........................    30   30   30
  Augmented FFT divisions ...................    31   31   30
  FFT algorithm .............................   312
  FFT cache size ............................    16


 Building Green's functions from KS orbitals and KS energies...

        ecut_chi ecut_chi^(-3/2)     RPA Ec (eV)     RPA Ec (Ha)
  9.60000000E+00  3.36196471E-02 -1.35407961E+01 -4.97615120E-01
  1.02000000E+01  3.06972692E-02 -1.36082262E+01 -5.00093132E-01
  1.08000000E+01  2.81750287E-02 -1.36612092E+01 -5.02040221E-01
  1.14000000E+01  2.59802139E-02 -1.37100594E+01 -5.03835434E-01
  1.20000000E+01  2.40562612E-02 -1.37542387E+01 -5.05458993E-01
              oo               0 -1.42869684E+01 -5.25036449E-01

================================================================================
== DATASET  4 ==================================================================
-   mpi_nproc: 512, omp_nthreads: -1 (-1 if OMP is not activated)


--- !DatasetInfo
iteration_state: {dtset: 4, }
dimensions: {natom: 2, nkpt: 29, mband: 480, nsppol: 1, nspinor: 1, nspden: 1, mpw: 941, }
cutoff_energies: {ecut:  40.0, pawecutdg:  -1.0, }
electrons: {nelect:   8.00000000E+00, charge:   0.00000000E+00, occopt:   1.00000000E+00, tsmear:   1.00000000E-02, }
meta: {optdriver: 6, }
...

 mkfilename: getwfk from: ../outdata_gs_DS2_WFK

 mkfilename: getden from: ../outdata_gs_DS1_DEN

 Exchange-correlation functional for the present dataset will be:
  GGA: Perdew-Burke-Ernzerhof functional - ixc=11
 Citation for XC functional:
  J.P.Perdew, K.Burke, M.Ernzerhof, PRL 77, 3865 (1996)

.Using single precision arithmetic; gwpc =  4

- Reading GS density from: ../outdata_gs_DS1_DEN



--------------------------------------------------------------------------------

 Total charge density [el/Bohr^3]
)     Maximum=    2.9605E-01  at reduced coord.    0.2000    0.2000    0.4333
)     Minimum=    1.3215E-02  at reduced coord.    0.5000    0.5000    0.5000
   Integrated=    8.0000E+00
- Reading GS states from WFK file: ../outdata_gs_DS2_WFK
  Mapping kBZ --> kIBZ
 Legend: bz = TS(ibz) + g0 where isym is the index of the symrec operation S and itim is 1 if TR is used.
        BZ                                       IBZ                                       ibz  isym  itim  g0
     1  [ 0.0000E+00,  0.0000E+00,  0.0000E+00]  [ 0.0000E+00,  0.0000E+00,  0.0000E+00]     1     1     0  [0, 0, 0]
     2  [ 1.2500E-01,  0.0000E+00,  0.0000E+00]  [ 1.2500E-01,  0.0000E+00,  0.0000E+00]     2     1     0  [0, 0, 0]
     3  [-1.2500E-01,  0.0000E+00,  0.0000E+00]  [ 1.2500E-01,  0.0000E+00,  0.0000E+00]     2     2     0  [0, 0, 0]
     4  [ 0.0000E+00,  0.0000E+00, -1.2500E-01]  [ 1.2500E-01,  0.0000E+00,  0.0000E+00]     2     4     0  [0, 0, 0]
     5  [ 0.0000E+00,  1.2500E-01,  0.0000E+00]  [ 1.2500E-01,  0.0000E+00,  0.0000E+00]     2     7     0  [0, 0, 0]
     6  [ 1.2500E-01,  1.2500E-01,  1.2500E-01]  [ 1.2500E-01,  0.0000E+00,  0.0000E+00]     2     6     0  [0, 0, 0]
     7  [-1.2500E-01, -1.2500E-01, -1.2500E-01]  [ 1.2500E-01,  0.0000E+00,  0.0000E+00]     2     5     0  [0, 0, 0]
     8  [ 0.0000E+00, -1.2500E-01,  0.0000E+00]  [ 1.2500E-01,  0.0000E+00,  0.0000E+00]     2     8     0  [0, 0, 0]
     9  [ 0.0000E+00,  0.0000E+00,  1.2500E-01]  [ 1.2500E-01,  0.0000E+00,  0.0000E+00]     2     3     0  [0, 0, 0]
    10  [ 2.5000E-01,  0.0000E+00,  0.0000E+00]  [ 2.5000E-01,  0.0000E+00,  0.0000E+00]     3     1     0  [0, 0, 0]
    11  [ 2.5000E-01,  2.5000E-01,  2.5000E-01]  [ 2.5000E-01,  0.0000E+00,  0.0000E+00]     3     6     0  [0, 0, 0]
    12  [ 0.0000E+00,  2.5000E-01,  0.0000E+00]  [ 2.5000E-01,  0.0000E+00,  0.0000E+00]     3     7     0  [0, 0, 0]
    13  [ 0.0000E+00, -2.5000E-01,  0.0000E+00]  [ 2.5000E-01,  0.0000E+00,  0.0000E+00]     3     8     0  [0, 0, 0]
    14  [-2.5000E-01,  0.0000E+00,  0.0000E+00]  [ 2.5000E-01,  0.0000E+00,  0.0000E+00]     3     2     0  [0, 0, 0]
    15  [ 0.0000E+00,  0.0000E+00,  2.5000E-01]  [ 2.5000E-01,  0.0000E+00,  0.0000E+00]     3     3     0  [0, 0, 0]
    16  [ 0.0000E+00,  0.0000E+00, -2.5000E-01]  [ 2.5000E-01,  0.0000E+00,  0.0000E+00]     3     4     0  [0, 0, 0]
    17  [-2.5000E-01, -2.5000E-01, -2.5000E-01]  [ 2.5000E-01,  0.0000E+00,  0.0000E+00]     3     5     0  [0, 0, 0]
    18  [ 3.7500E-01,  0.0000E+00,  0.0000E+00]  [ 3.7500E-01,  0.0000E+00,  0.0000E+00]     4     1     0  [0, 0, 0]
    19  [-3.7500E-01, -3.7500E-01, -3.7500E-01]  [ 3.7500E-01,  0.0000E+00,  0.0000E+00]     4     5     0  [0, 0, 0]
    20  [ 0.0000E+00,  0.0000E+00, -3.7500E-01]  [ 3.7500E-01,  0.0000E+00,  0.0000E+00]     4     4     0  [0, 0, 0]
prtvol = 0, max 20 points are written


  Mapping qBZ --> qIBZ
 Legend: bz = TS(ibz) + g0 where isym is the index of the symrec operation S and itim is 1 if TR is used.
        BZ                                       IBZ                                       ibz  isym  itim  g0
     1  [ 0.0000E+00,  0.0000E+00,  0.0000E+00]  [ 0.0000E+00,  0.0000E+00,  0.0000E+00]     1     1     0  [0, 0, 0]
     2  [ 1.2500E-01,  0.0000E+00,  0.0000E+00]  [ 1.2500E-01,  0.0000E+00,  0.0000E+00]     2     1     0  [0, 0, 0]
     3  [-1.2500E-01,  0.0000E+00,  0.0000E+00]  [ 1.2500E-01,  0.0000E+00,  0.0000E+00]     2     2     0  [0, 0, 0]
     4  [ 0.0000E+00,  0.0000E+00, -1.2500E-01]  [ 1.2500E-01,  0.0000E+00,  0.0000E+00]     2     4     0  [0, 0, 0]
     5  [ 0.0000E+00,  1.2500E-01,  0.0000E+00]  [ 1.2500E-01,  0.0000E+00,  0.0000E+00]     2     7     0  [0, 0, 0]
     6  [ 1.2500E-01,  1.2500E-01,  1.2500E-01]  [ 1.2500E-01,  0.0000E+00,  0.0000E+00]     2     6     0  [0, 0, 0]
     7  [-1.2500E-01, -1.2500E-01, -1.2500E-01]  [ 1.2500E-01,  0.0000E+00,  0.0000E+00]     2     5     0  [0, 0, 0]
     8  [ 0.0000E+00, -1.2500E-01,  0.0000E+00]  [ 1.2500E-01,  0.0000E+00,  0.0000E+00]     2     8     0  [0, 0, 0]
     9  [ 0.0000E+00,  0.0000E+00,  1.2500E-01]  [ 1.2500E-01,  0.0000E+00,  0.0000E+00]     2     3     0  [0, 0, 0]
    10  [ 2.5000E-01,  0.0000E+00,  0.0000E+00]  [ 2.5000E-01,  0.0000E+00,  0.0000E+00]     3     1     0  [0, 0, 0]
    11  [ 2.5000E-01,  2.5000E-01,  2.5000E-01]  [ 2.5000E-01,  0.0000E+00,  0.0000E+00]     3     6     0  [0, 0, 0]
    12  [ 0.0000E+00,  2.5000E-01,  0.0000E+00]  [ 2.5000E-01,  0.0000E+00,  0.0000E+00]     3     7     0  [0, 0, 0]
    13  [ 0.0000E+00, -2.5000E-01,  0.0000E+00]  [ 2.5000E-01,  0.0000E+00,  0.0000E+00]     3     8     0  [0, 0, 0]
    14  [-2.5000E-01,  0.0000E+00,  0.0000E+00]  [ 2.5000E-01,  0.0000E+00,  0.0000E+00]     3     2     0  [0, 0, 0]
    15  [ 0.0000E+00,  0.0000E+00,  2.5000E-01]  [ 2.5000E-01,  0.0000E+00,  0.0000E+00]     3     3     0  [0, 0, 0]
    16  [ 0.0000E+00,  0.0000E+00, -2.5000E-01]  [ 2.5000E-01,  0.0000E+00,  0.0000E+00]     3     4     0  [0, 0, 0]
    17  [-2.5000E-01, -2.5000E-01, -2.5000E-01]  [ 2.5000E-01,  0.0000E+00,  0.0000E+00]     3     5     0  [0, 0, 0]
    18  [ 3.7500E-01,  0.0000E+00,  0.0000E+00]  [ 3.7500E-01,  0.0000E+00,  0.0000E+00]     4     1     0  [0, 0, 0]
    19  [-3.7500E-01, -3.7500E-01, -3.7500E-01]  [ 3.7500E-01,  0.0000E+00,  0.0000E+00]     4     5     0  [0, 0, 0]
    20  [ 0.0000E+00,  0.0000E+00, -3.7500E-01]  [ 3.7500E-01,  0.0000E+00,  0.0000E+00]     4     4     0  [0, 0, 0]
prtvol = 0, max 20 points are written



 === Kohn-Sham gaps and band edges from IBZ mesh ===
 Indirect band gap semiconductor
 Fundamental gap:     4.189 (eV)
   VBM:    -2.094 (eV) at k: [ 0.0000E+00,  0.0000E+00,  0.0000E+00]
   CBM:     2.094 (eV) at k: [ 3.7500E-01,  3.7500E-01,  0.0000E+00]
 Direct gap:         5.624 (eV) at k: [ 0.0000E+00,  0.0000E+00,  0.0000E+00]


 ==== FFT mesh for Green's function ====
  FFT mesh divisions ........................    15   15   15
  Augmented FFT divisions ...................    15   15   15
  FFT algorithm .............................   312
  FFT cache size ............................    16
- FFT uc_batch_size: 4
- FFT sc_batch_size: 4
 ==== Info on the GWR object ====

--- !GWR_params
iteration_state: {dtset: 4, }
gwr_task: RPA_ENERGY
nband: 480
ntau: 12
ngkpt: [8, 8, 8, ]
ngqpt: [8, 8, 8, ]
chi_algo: supercell
sigma_algo: 'BZ-convolutions'
nkibz: 29
nqibz: 29
inclvkb: 2
q0: [  1.00000000E-05,   2.00000000E-05,   3.00000000E-05, ]
gw_icutcoul: 6
green_mpw: 941
tchi_mpw: 169
g_ngfft: [15, 15, 15, 15, 15, 15, ]
P gwr_np_kgts: [4, 64, 2, 1, ]
P np_kibz: [
    1, 1, 1, 1, 1, 1, 1, 1, 
    1, 2, 1, 1, 1, 1, 1, 1, 
    2, 1, 1, 1, 1, 1, 1, 2, 
    1, 1, 1, 1, 1, 
]
P np_qibz: [
    1, 1, 1, 1, 1, 1, 1, 1, 
    1, 2, 1, 1, 1, 1, 1, 1, 
    2, 1, 1, 1, 1, 1, 1, 2, 
    1, 1, 1, 1, 1, 
]
min_transition_energy_eV:   1.53939108E-01
max_transition_energy_eV:   2.59049143E+01
eratio:   1.68280268E+02
ft_max_err_t2w_cos:   1.38826703E-04
ft_max_err_w2t_cos:   1.54513201E-05
ft_max_err_t2w_sin:   2.55733630E-03
cosft_duality_error:   5.95765984E-03
Minimax imaginary tau/omega mesh: !Tabular | # tau, weight(tau), omega, weight(omega)
    1 7.39339E-03   1.91750E-02   3.62152E-02   7.38800E-02
    2 4.08204E-02   4.90366E-02   1.17637E-01   9.23589E-02
    3 1.09871E-01   9.23591E-02   2.29094E-01   1.35586E-01
    4 2.35180E-01   1.64932E-01   4.01793E-01   2.18212E-01
    5 4.57886E-01   2.92397E-01   6.87974E-01   3.69046E-01
    6 8.51199E-01   5.14279E-01   1.18056E+00   6.43550E-01
    7 1.53832E+00   8.93037E-01   2.05122E+00   1.14988E+00
    8 2.72250E+00   1.52957E+00   3.62759E+00   2.10544E+00
    9 4.73771E+00   2.59076E+00   6.56020E+00   3.97405E+00
    10 8.14145E+00   4.37379E+00   1.22384E+01   7.89692E+00
    11 1.39305E+01   7.52851E+00   2.42449E+01   1.79110E+01
    12 2.43453E+01   1.44110E+01   5.84990E+01   6.61712E+01
...


 Computing chi0 head and wings with inclvkb: 2
 Using KS orbitals and KS energies...


 ==== FFT mesh for chi0 head/wings computation ====
  FFT mesh divisions ........................    30   30   30
  Augmented FFT divisions ...................    31   31   30
  FFT algorithm .............................   312
  FFT cache size ............................    16


 Building Green's functions from KS orbitals and KS energies...

        ecut_chi ecut_chi^(-3/2)     RPA Ec (eV)     RPA Ec (Ha)
  9.60000000E+00  3.36196471E-02 -1.35407963E+01 -4.97615129E-01
  1.02000000E+01  3.06972692E-02 -1.36082257E+01 -5.00093115E-01
  1.08000000E+01  2.81750287E-02 -1.36612087E+01 -5.02040202E-01
  1.14000000E+01  2.59802139E-02 -1.37100592E+01 -5.03835427E-01
  1.20000000E+01  2.40562612E-02 -1.37542388E+01 -5.05458996E-01
              oo               0 -1.42869679E+01 -5.25036432E-01

================================================================================
== DATASET  5 ==================================================================
-   mpi_nproc: 512, omp_nthreads: -1 (-1 if OMP is not activated)


--- !DatasetInfo
iteration_state: {dtset: 5, }
dimensions: {natom: 2, nkpt: 29, mband: 480, nsppol: 1, nspinor: 1, nspden: 1, mpw: 941, }
cutoff_energies: {ecut:  40.0, pawecutdg:  -1.0, }
electrons: {nelect:   8.00000000E+00, charge:   0.00000000E+00, occopt:   1.00000000E+00, tsmear:   1.00000000E-02, }
meta: {optdriver: 6, }
...

 mkfilename: getwfk from: ../outdata_gs_DS2_WFK

 mkfilename: getden from: ../outdata_gs_DS1_DEN

 Exchange-correlation functional for the present dataset will be:
  GGA: Perdew-Burke-Ernzerhof functional - ixc=11
 Citation for XC functional:
  J.P.Perdew, K.Burke, M.Ernzerhof, PRL 77, 3865 (1996)

.Using single precision arithmetic; gwpc =  4

- Reading GS density from: ../outdata_gs_DS1_DEN



--------------------------------------------------------------------------------

 Total charge density [el/Bohr^3]
)     Maximum=    2.9605E-01  at reduced coord.    0.2000    0.2000    0.4333
)     Minimum=    1.3215E-02  at reduced coord.    0.5000    0.5000    0.5000
   Integrated=    8.0000E+00
- Reading GS states from WFK file: ../outdata_gs_DS2_WFK
  Mapping kBZ --> kIBZ
 Legend: bz = TS(ibz) + g0 where isym is the index of the symrec operation S and itim is 1 if TR is used.
        BZ                                       IBZ                                       ibz  isym  itim  g0
     1  [ 0.0000E+00,  0.0000E+00,  0.0000E+00]  [ 0.0000E+00,  0.0000E+00,  0.0000E+00]     1     1     0  [0, 0, 0]
     2  [ 1.2500E-01,  0.0000E+00,  0.0000E+00]  [ 1.2500E-01,  0.0000E+00,  0.0000E+00]     2     1     0  [0, 0, 0]
     3  [-1.2500E-01,  0.0000E+00,  0.0000E+00]  [ 1.2500E-01,  0.0000E+00,  0.0000E+00]     2     2     0  [0, 0, 0]
     4  [ 0.0000E+00,  0.0000E+00, -1.2500E-01]  [ 1.2500E-01,  0.0000E+00,  0.0000E+00]     2     4     0  [0, 0, 0]
     5  [ 0.0000E+00,  1.2500E-01,  0.0000E+00]  [ 1.2500E-01,  0.0000E+00,  0.0000E+00]     2     7     0  [0, 0, 0]
     6  [ 1.2500E-01,  1.2500E-01,  1.2500E-01]  [ 1.2500E-01,  0.0000E+00,  0.0000E+00]     2     6     0  [0, 0, 0]
     7  [-1.2500E-01, -1.2500E-01, -1.2500E-01]  [ 1.2500E-01,  0.0000E+00,  0.0000E+00]     2     5     0  [0, 0, 0]
     8  [ 0.0000E+00, -1.2500E-01,  0.0000E+00]  [ 1.2500E-01,  0.0000E+00,  0.0000E+00]     2     8     0  [0, 0, 0]
     9  [ 0.0000E+00,  0.0000E+00,  1.2500E-01]  [ 1.2500E-01,  0.0000E+00,  0.0000E+00]     2     3     0  [0, 0, 0]
    10  [ 2.5000E-01,  0.0000E+00,  0.0000E+00]  [ 2.5000E-01,  0.0000E+00,  0.0000E+00]     3     1     0  [0, 0, 0]
    11  [ 2.5000E-01,  2.5000E-01,  2.5000E-01]  [ 2.5000E-01,  0.0000E+00,  0.0000E+00]     3     6     0  [0, 0, 0]
    12  [ 0.0000E+00,  2.5000E-01,  0.0000E+00]  [ 2.5000E-01,  0.0000E+00,  0.0000E+00]     3     7     0  [0, 0, 0]
    13  [ 0.0000E+00, -2.5000E-01,  0.0000E+00]  [ 2.5000E-01,  0.0000E+00,  0.0000E+00]     3     8     0  [0, 0, 0]
    14  [-2.5000E-01,  0.0000E+00,  0.0000E+00]  [ 2.5000E-01,  0.0000E+00,  0.0000E+00]     3     2     0  [0, 0, 0]
    15  [ 0.0000E+00,  0.0000E+00,  2.5000E-01]  [ 2.5000E-01,  0.0000E+00,  0.0000E+00]     3     3     0  [0, 0, 0]
    16  [ 0.0000E+00,  0.0000E+00, -2.5000E-01]  [ 2.5000E-01,  0.0000E+00,  0.0000E+00]     3     4     0  [0, 0, 0]
    17  [-2.5000E-01, -2.5000E-01, -2.5000E-01]  [ 2.5000E-01,  0.0000E+00,  0.0000E+00]     3     5     0  [0, 0, 0]
    18  [ 3.7500E-01,  0.0000E+00,  0.0000E+00]  [ 3.7500E-01,  0.0000E+00,  0.0000E+00]     4     1     0  [0, 0, 0]
    19  [-3.7500E-01, -3.7500E-01, -3.7500E-01]  [ 3.7500E-01,  0.0000E+00,  0.0000E+00]     4     5     0  [0, 0, 0]
    20  [ 0.0000E+00,  0.0000E+00, -3.7500E-01]  [ 3.7500E-01,  0.0000E+00,  0.0000E+00]     4     4     0  [0, 0, 0]
prtvol = 0, max 20 points are written


  Mapping qBZ --> qIBZ
 Legend: bz = TS(ibz) + g0 where isym is the index of the symrec operation S and itim is 1 if TR is used.
        BZ                                       IBZ                                       ibz  isym  itim  g0
     1  [ 0.0000E+00,  0.0000E+00,  0.0000E+00]  [ 0.0000E+00,  0.0000E+00,  0.0000E+00]     1     1     0  [0, 0, 0]
     2  [ 1.2500E-01,  0.0000E+00,  0.0000E+00]  [ 1.2500E-01,  0.0000E+00,  0.0000E+00]     2     1     0  [0, 0, 0]
     3  [-1.2500E-01,  0.0000E+00,  0.0000E+00]  [ 1.2500E-01,  0.0000E+00,  0.0000E+00]     2     2     0  [0, 0, 0]
     4  [ 0.0000E+00,  0.0000E+00, -1.2500E-01]  [ 1.2500E-01,  0.0000E+00,  0.0000E+00]     2     4     0  [0, 0, 0]
     5  [ 0.0000E+00,  1.2500E-01,  0.0000E+00]  [ 1.2500E-01,  0.0000E+00,  0.0000E+00]     2     7     0  [0, 0, 0]
     6  [ 1.2500E-01,  1.2500E-01,  1.2500E-01]  [ 1.2500E-01,  0.0000E+00,  0.0000E+00]     2     6     0  [0, 0, 0]
[...]
           strten5     0.0000000000E+00  0.0000000000E+00  0.0000000000E+00
                       0.0000000000E+00  0.0000000000E+00  0.0000000000E+00
           strten6     0.0000000000E+00  0.0000000000E+00  0.0000000000E+00
                       0.0000000000E+00  0.0000000000E+00  0.0000000000E+00
           strten7     0.0000000000E+00  0.0000000000E+00  0.0000000000E+00
                       0.0000000000E+00  0.0000000000E+00  0.0000000000E+00
           strten8     0.0000000000E+00  0.0000000000E+00  0.0000000000E+00
                       0.0000000000E+00  0.0000000000E+00  0.0000000000E+00
           strten9     0.0000000000E+00  0.0000000000E+00  0.0000000000E+00
                       0.0000000000E+00  0.0000000000E+00  0.0000000000E+00
           strten10    0.0000000000E+00  0.0000000000E+00  0.0000000000E+00
                       0.0000000000E+00  0.0000000000E+00  0.0000000000E+00
           strten11    0.0000000000E+00  0.0000000000E+00  0.0000000000E+00
                       0.0000000000E+00  0.0000000000E+00  0.0000000000E+00
           strten12    0.0000000000E+00  0.0000000000E+00  0.0000000000E+00
                       0.0000000000E+00  0.0000000000E+00  0.0000000000E+00
           strten13    0.0000000000E+00  0.0000000000E+00  0.0000000000E+00
                       0.0000000000E+00  0.0000000000E+00  0.0000000000E+00
           strten14    0.0000000000E+00  0.0000000000E+00  0.0000000000E+00
                       0.0000000000E+00  0.0000000000E+00  0.0000000000E+00
           strten15    0.0000000000E+00  0.0000000000E+00  0.0000000000E+00
                       0.0000000000E+00  0.0000000000E+00  0.0000000000E+00
           symrel      1  0  0   0  1  0   0  0  1      -1  0  0   0 -1  0   0  0 -1
                       0 -1  1   0 -1  0   1 -1  0       0  1 -1   0  1  0  -1  1  0
                      -1  0  0  -1  0  1  -1  1  0       1  0  0   1  0 -1   1 -1  0
                       0  1 -1   1  0 -1   0  0 -1       0 -1  1  -1  0  1   0  0  1
                      -1  0  0  -1  1  0  -1  0  1       1  0  0   1 -1  0   1  0 -1
                       0 -1  1   1 -1  0   0 -1  0       0  1 -1  -1  1  0   0  1  0
                       1  0  0   0  0  1   0  1  0      -1  0  0   0  0 -1   0 -1  0
                       0  1 -1   0  0 -1   1  0 -1       0 -1  1   0  0  1  -1  0  1
                      -1  0  1  -1  1  0  -1  0  0       1  0 -1   1 -1  0   1  0  0
                       0 -1  0   1 -1  0   0 -1  1       0  1  0  -1  1  0   0  1 -1
                       1  0 -1   0  0 -1   0  1 -1      -1  0  1   0  0  1   0 -1  1
                       0  1  0   0  0  1   1  0  0       0 -1  0   0  0 -1  -1  0  0
                       1  0 -1   0  1 -1   0  0 -1      -1  0  1   0 -1  1   0  0  1
                       0 -1  0   0 -1  1   1 -1  0       0  1  0   0  1 -1  -1  1  0
                      -1  0  1  -1  0  0  -1  1  0       1  0 -1   1  0  0   1 -1  0
                       0  1  0   1  0  0   0  0  1       0 -1  0  -1  0  0   0  0 -1
                       0  0 -1   0  1 -1   1  0 -1       0  0  1   0 -1  1  -1  0  1
                       1 -1  0   0 -1  1   0 -1  0      -1  1  0   0  1 -1   0  1  0
                       0  0  1   1  0  0   0  1  0       0  0 -1  -1  0  0   0 -1  0
                      -1  1  0  -1  0  0  -1  0  1       1 -1  0   1  0  0   1  0 -1
                       0  0  1   0  1  0   1  0  0       0  0 -1   0 -1  0  -1  0  0
                       1 -1  0   0 -1  0   0 -1  1      -1  1  0   0  1  0   0  1 -1
                       0  0 -1   1  0 -1   0  1 -1       0  0  1  -1  0  1   0 -1  1
                      -1  1  0  -1  0  1  -1  0  0       1 -1  0   1  0 -1   1  0  0
           timopt          -1
            tnons      0.0000000  0.0000000  0.0000000     0.2500000  0.2500000  0.2500000
                       0.0000000  0.0000000  0.0000000     0.2500000  0.2500000  0.2500000
                       0.0000000  0.0000000  0.0000000     0.2500000  0.2500000  0.2500000
                       0.0000000  0.0000000  0.0000000     0.2500000  0.2500000  0.2500000
                       0.0000000  0.0000000  0.0000000     0.2500000  0.2500000  0.2500000
                       0.0000000  0.0000000  0.0000000     0.2500000  0.2500000  0.2500000
                       0.0000000  0.0000000  0.0000000     0.2500000  0.2500000  0.2500000
                       0.0000000  0.0000000  0.0000000     0.2500000  0.2500000  0.2500000
                       0.0000000  0.0000000  0.0000000     0.2500000  0.2500000  0.2500000
                       0.0000000  0.0000000  0.0000000     0.2500000  0.2500000  0.2500000
                       0.0000000  0.0000000  0.0000000     0.2500000  0.2500000  0.2500000
                       0.0000000  0.0000000  0.0000000     0.2500000  0.2500000  0.2500000
                       0.0000000  0.0000000  0.0000000     0.2500000  0.2500000  0.2500000
                       0.0000000  0.0000000  0.0000000     0.2500000  0.2500000  0.2500000
                       0.0000000  0.0000000  0.0000000     0.2500000  0.2500000  0.2500000
                       0.0000000  0.0000000  0.0000000     0.2500000  0.2500000  0.2500000
                       0.0000000  0.0000000  0.0000000     0.2500000  0.2500000  0.2500000
                       0.0000000  0.0000000  0.0000000     0.2500000  0.2500000  0.2500000
                       0.0000000  0.0000000  0.0000000     0.2500000  0.2500000  0.2500000
                       0.0000000  0.0000000  0.0000000     0.2500000  0.2500000  0.2500000
                       0.0000000  0.0000000  0.0000000     0.2500000  0.2500000  0.2500000
                       0.0000000  0.0000000  0.0000000     0.2500000  0.2500000  0.2500000
                       0.0000000  0.0000000  0.0000000     0.2500000  0.2500000  0.2500000
                       0.0000000  0.0000000  0.0000000     0.2500000  0.2500000  0.2500000
            typat      1  1
              wtk        0.00195    0.01563    0.01563    0.01563    0.00781    0.01172
                         0.04688    0.04688    0.04688    0.04688    0.04688    0.02344
                         0.01172    0.04688    0.04688    0.04688    0.02344    0.01172
                         0.04688    0.02344    0.00586    0.04688    0.09375    0.04688
                         0.04688    0.09375    0.04688    0.02344    0.01172
           xangst      0.0000000000E+00  0.0000000000E+00  0.0000000000E+00
                       8.9175000000E-01  8.9175000000E-01  8.9175000000E-01
            xcart      0.0000000000E+00  0.0000000000E+00  0.0000000000E+00
                       1.6851632790E+00  1.6851632790E+00  1.6851632790E+00
             xred      0.0000000000E+00  0.0000000000E+00  0.0000000000E+00
                       2.5000000000E-01  2.5000000000E-01  2.5000000000E-01
            znucl        6.00000

================================================================================

 Test the timer : 
  a combined call timab(*,1,tsec) + timab(*,2,tsec) is 
- CPU time =    6.0006E-07 sec,    Wall time =    6.0040E-07 sec

- Total cpu        time (s,m,h):     386204.0     6436.73    107.279
- Total wall clock time (s,m,h):     386388.5     6439.81    107.330
-
- For major independent code sections, cpu and wall times (sec),
-  as well as % of the time and number of calls for node 0
-
-<BEGIN_TIMER mpi_nprocs = 512, omp_nthreads = 1, mpi_rank = 0>
- cpu_time =          753.1, wall_time =          754.7
-
- routine                            cpu     %          wall     %      number of calls Gflops    Speedup Efficacity
-                                                                        (-1=no count)
- gwr_build_tchi                  573.460   0.1       573.964   0.1             15      -1.00        1.00       1.00
- gwr_gk_to_scbox                 112.365   0.0       112.472   0.0           2100      -1.00        1.00       1.00
- gwr_rpa_energy                   90.342   0.0        90.430   0.0             15      -1.00        1.00       1.00
- gsph2box                         62.572   0.0        62.802   0.0        2035200      -1.00        1.00       1.00
- gwr_build_head_wings             51.961   0.0        51.990   0.0             15      -1.00        1.00       1.00
- gwr_build_green                  21.485   0.0        21.505   0.0             15      -1.00        1.00       1.00
- gwr_init                          8.606   0.0         8.715   0.0             15      -1.00        0.99       0.99
- gwr_read_ugb_from_wfk             2.218   0.0         2.516   0.0             15      -1.00        0.88       0.88
- invars2                           0.393   0.0         0.393   0.0             15      -1.00        1.00       1.00
- others (146)                      1.705   0.0         1.807   0.0             -1      -1.00        0.94       0.94
-<END_TIMER>
-
- subtotal                        925.108   0.2       926.595   0.2                                  1.00       1.00

- For major independent code sections, cpu and wall times (sec),
- as well as % of the total time and number of calls 

-<BEGIN_TIMER mpi_nprocs = 512, omp_nthreads = 1, mpi_rank = world>
- cpu_time =      386204.0, wall_time =      386388.5
-
- routine                            cpu     %          wall     %      number of calls Gflops    Speedup Efficacity
-                                                                        (-1=no count)
- gwr_build_tchi               294798.854  76.3    294841.762  76.3           7680      -1.00        1.00       1.00
- gwr_gk_to_scbox               55934.162  14.5     55940.501  14.5        1069200      -1.00        1.00       1.00
- gwr_rpa_energy                37340.829   9.7     37367.030   9.7           7680      -1.00        1.00       1.00
- gsph2box                      31570.054   8.2     31645.648   8.2     1036800000      -1.00        1.00       1.00
- gwr_build_head_wings          26253.994   6.8     26257.782   6.8           7680      -1.00        1.00       1.00
- gwr_build_green                9046.221   2.3      9047.211   2.3           7680      -1.00        1.00       1.00
- gwr_init                       4285.543   1.1      4303.321   1.1           7680      -1.00        1.00       1.00
- gwr_read_ugb_from_wfk          1576.028   0.4      1650.493   0.4           7680      -1.00        0.95       0.95
- invars2                         198.314   0.1       198.337   0.1           7680      -1.00        1.00       1.00
- kpgsph                          159.250   0.0       158.546   0.0       24092595      -1.00        1.00       1.00
- abinit(2)                       145.062   0.0       145.915   0.0            512      -1.00        0.99       0.99
- pspini                          132.063   0.0       136.672   0.0           7680      -1.00        0.97       0.97
- xc:pot/=fourdp                   88.528   0.0        88.659   0.0          15360      -1.00        1.00       1.00
- ewald                            77.033   0.0        77.052   0.0           7680      -1.00        1.00       1.00
- wfd_read_wfk                     74.895   0.0        75.387   0.0           7680      -1.00        0.99       0.99
- fourdp                           68.916   0.0        69.043   0.0         145920      -1.00        1.00       1.00
- timing timab                     59.363   0.0        59.367   0.0           7168      -1.00        1.00       1.00
- mkcore                           52.812   0.0        52.823   0.0           7680      -1.00        1.00       1.00
- mkffnl                            4.991   0.0         4.936   0.0          55680      -1.00        1.01       1.01
- others (136)                      0.000   0.0         0.000   0.0             -1      -1.00        0.00       0.00
-<END_TIMER>

- subtotal                     461866.913 119.6    462120.487 119.6                                  1.00       1.00

 Partitioning of abinit
- abinit                       386204.011 100.0    386388.547 100.0            512                   1.00       1.00
 
- abinit(1)                       106.729   0.0       111.165   0.0            512                   0.96       0.96
- abinit(2)                       145.062   0.0       145.915   0.0            512                   0.99       0.99
- indefo+macroin+invars2m         198.737   0.1       198.758   0.1            512                   1.00       1.00
- abinit(4)                       421.413   0.1       428.942   0.1            512                   0.98       0.98
- driver                       385641.609  99.9    385815.951  99.9            512                   1.00       1.00

- subtotal                     386204.011 100.0    386388.547 100.0                                  1.00       1.00

 Partitioning of driver
- driver                       385641.609  99.9    385815.951  99.9            512                   1.00       1.00
 
- (other)                      385622.969  99.8    385796.975  99.8             -1                   1.00       1.00

- subtotal                     385641.609  99.9    385815.951  99.9                                  1.00       1.00

 Partitioning of  fourdp (upwards partitioning)
- fourdp                           68.916   0.0        69.043   0.0         145920                   1.00       1.00
 

- subtotal                         68.916   0.0        69.043   0.0                                  1.00       1.00
-
-Synchronisation (=leave_test) and MPI calls 
- communic.MPI                      7.390   0.0         7.566   0.0            512                   0.98       0.98
-
- subtotal                          0.000   0.0         0.000   0.0                                  0.00       0.00

 Additional information
- timana(1)                         0.720   0.0         0.735   0.0            512                   0.98       0.98
- total timab                     692.453   0.2       692.504   0.2     1162094019                   1.00       1.00
- xc:fourdp                        44.461   0.0        44.365   0.0         122880                   1.00       1.00
- read_rho                         51.762   0.0        51.982   0.0           7680                   1.00       1.00

 timana : in multi dataset mode, the more detailed analysis is not done.

================================================================================

 Suggested references for the acknowledgment of ABINIT usage.

 The users of ABINIT have little formal obligations with respect to the ABINIT group
 (those specified in the GNU General Public License, http://www.gnu.org/copyleft/gpl.txt).
 However, it is common practice in the scientific literature,
 to acknowledge the efforts of people that have made the research possible.
 In this spirit, please find below suggested citations of work written by ABINIT developers,
 corresponding to implementations inside of ABINIT that you have used in the present run.
 Note also that it will be of great value to readers of publications presenting these results,
 to read papers enabling them to understand the theoretical formalism and details
 of the ABINIT implementation.
 For information on why they are suggested, see also https://docs.abinit.org/theory/acknowledgments.
-
- [1] The Abinit project: Impact, environment and recent developments.
- Computer Phys. Comm. 248, 107042 (2020).
- X.Gonze, B. Amadon, G. Antonius, F.Arnardi, L.Baguet, J.-M.Beuken,
- J.Bieder, F.Bottin, J.Bouchet, E.Bousquet, N.Brouwer, F.Bruneval,
- G.Brunin, T.Cavignac, J.-B. Charraud, Wei Chen, M.Cote, S.Cottenier,
- J.Denier, G.Geneste, Ph.Ghosez, M.Giantomassi, Y.Gillet, O.Gingras,
- D.R.Hamann, G.Hautier, Xu He, N.Helbig, N.Holzwarth, Y.Jia, F.Jollet,
- W.Lafargue-Dit-Hauret, K.Lejaeghere, M.A.L.Marques, A.Martin, C.Martins,
- H.P.C. Miranda, F.Naccarato, K. Persson, G.Petretto, V.Planes, Y.Pouillon,
- S.Prokhorenko, F.Ricci, G.-M.Rignanese, A.H.Romero, M.M.Schmitt, M.Torrent,
- M.J.van Setten, B.Van Troeye, M.J.Verstraete, G.Zerah and J.W.Zwanzig
- Comment: the fifth generic paper describing the ABINIT project.
- Note that a version of this paper, that is not formatted for Computer Phys. Comm. 
- is available at https://www.abinit.org/sites/default/files/ABINIT20.pdf .
- The licence allows the authors to put it on the Web.
- DOI and bibtex: see https://docs.abinit.org/theory/bibliography/#gonze2020
-
- [2] Optimized norm-conserving Vanderbilt pseudopotentials.
- D.R. Hamann, Phys. Rev. B 88, 085117 (2013).
- Comment: Some pseudopotential generated using the ONCVPSP code were used.
- DOI and bibtex: see https://docs.abinit.org/theory/bibliography/#hamann2013
-
- [3] ABINIT: Overview, and focus on selected capabilities
- J. Chem. Phys. 152, 124102 (2020).
- A. Romero, D.C. Allan, B. Amadon, G. Antonius, T. Applencourt, L.Baguet,
- J.Bieder, F.Bottin, J.Bouchet, E.Bousquet, F.Bruneval,
- G.Brunin, D.Caliste, M.Cote,
- J.Denier, C. Dreyer, Ph.Ghosez, M.Giantomassi, Y.Gillet, O.Gingras,
- D.R.Hamann, G.Hautier, F.Jollet, G. Jomard,
- A.Martin, 
- H.P.C. Miranda, F.Naccarato, G.Petretto, N.A. Pike, V.Planes,
- S.Prokhorenko, T. Rangel, F.Ricci, G.-M.Rignanese, M.Royo, M.Stengel, M.Torrent,
- M.J.van Setten, B.Van Troeye, M.J.Verstraete, J.Wiktor, J.W.Zwanziger, and X.Gonze.
- Comment: a global overview of ABINIT, with focus on selected capabilities .
- Note that a version of this paper, that is not formatted for J. Chem. Phys 
- is available at https://www.abinit.org/sites/default/files/ABINIT20_JPC.pdf .
- The licence allows the authors to put it on the Web.
- DOI and bibtex: see https://docs.abinit.org/theory/bibliography/#romero2020
-
- [4] Recent developments in the ABINIT software package.
- Computer Phys. Comm. 205, 106 (2016).
- X.Gonze, F.Jollet, F.Abreu Araujo, D.Adams, B.Amadon, T.Applencourt,
- C.Audouze, J.-M.Beuken, J.Bieder, A.Bokhanchuk, E.Bousquet, F.Bruneval
- D.Caliste, M.Cote, F.Dahm, F.Da Pieve, M.Delaveau, M.Di Gennaro,
- B.Dorado, C.Espejo, G.Geneste, L.Genovese, A.Gerossier, M.Giantomassi,
- Y.Gillet, D.R.Hamann, L.He, G.Jomard, J.Laflamme Janssen, S.Le Roux,
- A.Levitt, A.Lherbier, F.Liu, I.Lukacevic, A.Martin, C.Martins,
- M.J.T.Oliveira, S.Ponce, Y.Pouillon, T.Rangel, G.-M.Rignanese,
- A.H.Romero, B.Rousseau, O.Rubel, A.A.Shukri, M.Stankovski, M.Torrent,
- M.J.Van Setten, B.Van Troeye, M.J.Verstraete, D.Waroquier, J.Wiktor,
- B.Xu, A.Zhou, J.W.Zwanziger.
- Comment: the fourth generic paper describing the ABINIT project.
- Note that a version of this paper, that is not formatted for Computer Phys. Comm. 
- is available at https://www.abinit.org/sites/default/files/ABINIT16.pdf .
- The licence allows the authors to put it on the Web.
- DOI and bibtex: see https://docs.abinit.org/theory/bibliography/#gonze2016
-
- And optionally:
-
- [5] ABINIT: First-principles approach of materials and nanosystem properties.
- Computer Phys. Comm. 180, 2582-2615 (2009).
- X. Gonze, B. Amadon, P.-M. Anglade, J.-M. Beuken, F. Bottin, P. Boulanger, F. Bruneval,
- D. Caliste, R. Caracas, M. Cote, T. Deutsch, L. Genovese, Ph. Ghosez, M. Giantomassi
- S. Goedecker, D.R. Hamann, P. Hermet, F. Jollet, G. Jomard, S. Leroux, M. Mancini, S. Mazevet,
- M.J.T. Oliveira, G. Onida, Y. Pouillon, T. Rangel, G.-M. Rignanese, D. Sangalli, R. Shaltaf,
- M. Torrent, M.J. Verstraete, G. Zerah, J.W. Zwanziger
- Comment: the third generic paper describing the ABINIT project.
- Note that a version of this paper, that is not formatted for Computer Phys. Comm. 
- is available at https://www.abinit.org/sites/default/files/ABINIT_CPC_v10.pdf .
- The licence allows the authors to put it on the Web.
- DOI and bibtex: see https://docs.abinit.org/theory/bibliography/#gonze2009
-
- Proc.   0 individual time (sec): cpu=        753.1  wall=        754.7

================================================================================

 Calculation completed.
.Delivered   0 WARNINGs and  15 COMMENTs to log file.
+Overall time at end (sec) : cpu=     386212.3  wall=     386397.1
