
.Version 9.9.2 of ABINIT 
.(MPI version, prepared for a x86_64_linux_gnu11.2 computer) 

.Copyright (C) 1998-2022 ABINIT group . 
 ABINIT comes with ABSOLUTELY NO WARRANTY.
 It is free software, and you are welcome to redistribute it
 under certain conditions (GNU General Public License,
 see ~abinit/COPYING or http://www.gnu.org/copyleft/gpl.txt).

 ABINIT is a project of the Universite Catholique de Louvain,
 Corning Inc. and other collaborators, see ~abinit/doc/developers/contributors.txt .
 Please read https://docs.abinit.org/theory/acknowledgments for suggested
 acknowledgments of the ABINIT effort.
 For more information, see https://www.abinit.org .

.Starting date : Thu 16 Feb 2023.
- ( at 23h12 )
  
- input  file    -> run.abi
- output file    -> run.abo
- root for input  files -> ../indata_ac
- root for output files -> outdata_ac


 DATASET    1 : space group Fd -3 m (#227); Bravais cF (face-center cubic)
================================================================================
 Values of the parameters that define the memory need for DATASET  1.
     intxc =       0    ionmov =       0      iscf =       7    lmnmax =       4
     lnmax =       4     mgfft =      30  mpssoang =       2    mqgrid =    3001
     natom =       2  nloc_mem =       1    nspden =       1   nspinor =       1
    nsppol =       1      nsym =      48    n1xccc =    2501    ntypat =       1
    occopt =       1   xclevel =       2
-    mband =         480        mffmem =           1         mkmem =           1
       mpw =         941          nfft =       27000          nkpt =          29
================================================================================
P This job should need less than                      23.468 Mbytes of memory.
  Rough estimation (10% accuracy) of disk space for files :
_ WF disk file :    199.873 Mbytes ; DEN or POT disk file :      0.208 Mbytes.
================================================================================


 DATASET    2 : space group Fd -3 m (#227); Bravais cF (face-center cubic)
================================================================================
 Values of the parameters that define the memory need for DATASET  2.
     intxc =       0    ionmov =       0      iscf =       7    lmnmax =       4
     lnmax =       4     mgfft =      30  mpssoang =       2    mqgrid =    3001
     natom =       2  nloc_mem =       1    nspden =       1   nspinor =       1
    nsppol =       1      nsym =      48    n1xccc =    2501    ntypat =       1
    occopt =       1   xclevel =       2
-    mband =         480        mffmem =           1         mkmem =           1
       mpw =         941          nfft =       27000          nkpt =          29
================================================================================
P This job should need less than                      23.468 Mbytes of memory.
  Rough estimation (10% accuracy) of disk space for files :
_ WF disk file :    199.873 Mbytes ; DEN or POT disk file :      0.208 Mbytes.
================================================================================

--------------------------------------------------------------------------------
------------- Echo of variables that govern the present computation ------------
--------------------------------------------------------------------------------
-
- outvars: echo of selected default values                                      
-   iomode0 =  0 , fftalg0 =312 , wfoptalg0 =  0
-
- outvars: echo of global parameters not present in the input file              
-  max_nthreads =    0
-
 -outvars: echo values of preprocessed input variables --------
            acell      6.7406531160E+00  6.7406531160E+00  6.7406531160E+00 Bohr
              amu      1.20110000E+01
             bdgw           1       5       1       5
           diemac      1.20000000E+01
             ecut      4.00000000E+01 Hartree
          ecuteps      1.20000000E+01 Hartree
         ecutsigx      3.60000000E+01 Hartree
          ecutwfn      4.00000000E+01 Hartree
-          fftalg         312
           getscr1          0
           getscr2         -1
           istwfk        1    0    0    0    1    0    0    0    0    0
                         0    0    0    0    0    0    0    0    0    0
                         1    0    0    0    0    0    0    0    0
              ixc          11
           jdtset        1    2
              kpt      0.00000000E+00  0.00000000E+00  0.00000000E+00
                       1.25000000E-01  0.00000000E+00  0.00000000E+00
                       2.50000000E-01  0.00000000E+00  0.00000000E+00
                       3.75000000E-01  0.00000000E+00  0.00000000E+00
                       5.00000000E-01  0.00000000E+00  0.00000000E+00
                       1.25000000E-01  1.25000000E-01  0.00000000E+00
                       2.50000000E-01  1.25000000E-01  0.00000000E+00
                       3.75000000E-01  1.25000000E-01  0.00000000E+00
                       5.00000000E-01  1.25000000E-01  0.00000000E+00
                      -3.75000000E-01  1.25000000E-01  0.00000000E+00
                      -2.50000000E-01  1.25000000E-01  0.00000000E+00
                      -1.25000000E-01  1.25000000E-01  0.00000000E+00
                       2.50000000E-01  2.50000000E-01  0.00000000E+00
                       3.75000000E-01  2.50000000E-01  0.00000000E+00
                       5.00000000E-01  2.50000000E-01  0.00000000E+00
                      -3.75000000E-01  2.50000000E-01  0.00000000E+00
                      -2.50000000E-01  2.50000000E-01  0.00000000E+00
                       3.75000000E-01  3.75000000E-01  0.00000000E+00
                       5.00000000E-01  3.75000000E-01  0.00000000E+00
                      -3.75000000E-01  3.75000000E-01  0.00000000E+00
                       5.00000000E-01  5.00000000E-01  0.00000000E+00
                       3.75000000E-01  2.50000000E-01  1.25000000E-01
                       5.00000000E-01  2.50000000E-01  1.25000000E-01
                      -3.75000000E-01  2.50000000E-01  1.25000000E-01
                       5.00000000E-01  3.75000000E-01  1.25000000E-01
                      -3.75000000E-01  3.75000000E-01  1.25000000E-01
                      -2.50000000E-01  3.75000000E-01  1.25000000E-01
                      -3.75000000E-01  5.00000000E-01  1.25000000E-01
                      -2.50000000E-01  5.00000000E-01  2.50000000E-01
            kptgw      0.00000000E+00  0.00000000E+00  0.00000000E+00
                       5.00000000E-01  5.00000000E-01  0.00000000E+00
         kptrlatt        8    0    0      0    8    0      0    0    8
          kptrlen      3.81308922E+01
P           mkmem           1
            natom           2
            nband         480
           ndtset           2
            ngfft          30      30      30
             nkpt          29
           nkptgw           2
           npweps         169
          npwsigx         749
           npwwfn         941
            nstep          50
             nsym          48
           ntypat           1
              occ      2.000000  2.000000  2.000000  2.000000  0.000000  0.000000
                       0.000000  0.000000  0.000000  0.000000  0.000000  0.000000
                       0.000000  0.000000  0.000000  0.000000  0.000000  0.000000
                       0.000000  0.000000  0.000000  0.000000  0.000000  0.000000
                       0.000000  0.000000  0.000000  0.000000  0.000000  0.000000
                       0.000000  0.000000  0.000000  0.000000  0.000000  0.000000
                       0.000000  0.000000  0.000000  0.000000  0.000000  0.000000
                       0.000000  0.000000  0.000000  0.000000  0.000000  0.000000
                       0.000000  0.000000  0.000000  0.000000  0.000000  0.000000
                       0.000000  0.000000  0.000000  0.000000  0.000000  0.000000
                       0.000000  0.000000  0.000000  0.000000  0.000000  0.000000
                       0.000000  0.000000  0.000000  0.000000  0.000000  0.000000
                       0.000000  0.000000  0.000000  0.000000  0.000000  0.000000
                       0.000000  0.000000  0.000000  0.000000  0.000000  0.000000
                       0.000000  0.000000  0.000000  0.000000  0.000000  0.000000
                       0.000000  0.000000  0.000000  0.000000  0.000000  0.000000
                       0.000000  0.000000  0.000000  0.000000  0.000000  0.000000
                       0.000000  0.000000  0.000000  0.000000  0.000000  0.000000
                       0.000000  0.000000  0.000000  0.000000  0.000000  0.000000
                       0.000000  0.000000  0.000000  0.000000  0.000000  0.000000
                       0.000000  0.000000  0.000000  0.000000  0.000000  0.000000
                       0.000000  0.000000  0.000000  0.000000  0.000000  0.000000
                       0.000000  0.000000  0.000000  0.000000  0.000000  0.000000
                       0.000000  0.000000  0.000000  0.000000  0.000000  0.000000
                       0.000000  0.000000  0.000000  0.000000  0.000000  0.000000
                       0.000000  0.000000  0.000000  0.000000  0.000000  0.000000
                       0.000000  0.000000  0.000000  0.000000  0.000000  0.000000
                       0.000000  0.000000  0.000000  0.000000  0.000000  0.000000
                       0.000000  0.000000  0.000000  0.000000  0.000000  0.000000
                       0.000000  0.000000  0.000000  0.000000  0.000000  0.000000
                       0.000000  0.000000  0.000000  0.000000  0.000000  0.000000
                       0.000000  0.000000  0.000000  0.000000  0.000000  0.000000
                       0.000000  0.000000  0.000000  0.000000  0.000000  0.000000
                       0.000000  0.000000  0.000000  0.000000  0.000000  0.000000
                       0.000000  0.000000  0.000000  0.000000  0.000000  0.000000
                       0.000000  0.000000  0.000000  0.000000  0.000000  0.000000
                       0.000000  0.000000  0.000000  0.000000  0.000000  0.000000
                       0.000000  0.000000  0.000000  0.000000  0.000000  0.000000
                       0.000000  0.000000  0.000000  0.000000  0.000000  0.000000
                       0.000000  0.000000  0.000000  0.000000  0.000000  0.000000
                       0.000000  0.000000  0.000000  0.000000  0.000000  0.000000
                       0.000000  0.000000  0.000000  0.000000  0.000000  0.000000
                       0.000000  0.000000  0.000000  0.000000  0.000000  0.000000
                       0.000000  0.000000  0.000000  0.000000  0.000000  0.000000
                       0.000000  0.000000  0.000000  0.000000  0.000000  0.000000
                       0.000000  0.000000  0.000000  0.000000  0.000000  0.000000
                       0.000000  0.000000  0.000000  0.000000  0.000000  0.000000
                       0.000000  0.000000  0.000000  0.000000  0.000000  0.000000
                       0.000000  0.000000  0.000000  0.000000  0.000000  0.000000
                       0.000000  0.000000  0.000000  0.000000  0.000000  0.000000
                       0.000000  0.000000  0.000000  0.000000  0.000000  0.000000
                       0.000000  0.000000  0.000000  0.000000  0.000000  0.000000
                       0.000000  0.000000  0.000000  0.000000  0.000000  0.000000
                       0.000000  0.000000  0.000000  0.000000  0.000000  0.000000
                       0.000000  0.000000  0.000000  0.000000  0.000000  0.000000
                       0.000000  0.000000  0.000000  0.000000  0.000000  0.000000
                       0.000000  0.000000  0.000000  0.000000  0.000000  0.000000
                       0.000000  0.000000  0.000000  0.000000  0.000000  0.000000
                       0.000000  0.000000  0.000000  0.000000  0.000000  0.000000
                       0.000000  0.000000  0.000000  0.000000  0.000000  0.000000
                       0.000000  0.000000  0.000000  0.000000  0.000000  0.000000
                       0.000000  0.000000  0.000000  0.000000  0.000000  0.000000
                       0.000000  0.000000  0.000000  0.000000  0.000000  0.000000
                       0.000000  0.000000  0.000000  0.000000  0.000000  0.000000
                       0.000000  0.000000  0.000000  0.000000  0.000000  0.000000
                       0.000000  0.000000  0.000000  0.000000  0.000000  0.000000
                       0.000000  0.000000  0.000000  0.000000  0.000000  0.000000
                       0.000000  0.000000  0.000000  0.000000  0.000000  0.000000
                       0.000000  0.000000  0.000000  0.000000  0.000000  0.000000
                       0.000000  0.000000  0.000000  0.000000  0.000000  0.000000
                       0.000000  0.000000  0.000000  0.000000  0.000000  0.000000
                       0.000000  0.000000  0.000000  0.000000  0.000000  0.000000
                       0.000000  0.000000  0.000000  0.000000  0.000000  0.000000
                       0.000000  0.000000  0.000000  0.000000  0.000000  0.000000
                       0.000000  0.000000  0.000000  0.000000  0.000000  0.000000
                       0.000000  0.000000  0.000000  0.000000  0.000000  0.000000
                       0.000000  0.000000  0.000000  0.000000  0.000000  0.000000
                       0.000000  0.000000  0.000000  0.000000  0.000000  0.000000
                       0.000000  0.000000  0.000000  0.000000  0.000000  0.000000
                       0.000000  0.000000  0.000000  0.000000  0.000000  0.000000
        optdriver1          3
        optdriver2          4
            rprim      0.0000000000E+00  5.0000000000E-01  5.0000000000E-01
                       5.0000000000E-01  0.0000000000E+00  5.0000000000E-01
                       5.0000000000E-01  5.0000000000E-01  0.0000000000E+00
          spgroup         227
           symrel      1  0  0   0  1  0   0  0  1      -1  0  0   0 -1  0   0  0 -1
                       0 -1  1   0 -1  0   1 -1  0       0  1 -1   0  1  0  -1  1  0
                      -1  0  0  -1  0  1  -1  1  0       1  0  0   1  0 -1   1 -1  0
                       0  1 -1   1  0 -1   0  0 -1       0 -1  1  -1  0  1   0  0  1
                      -1  0  0  -1  1  0  -1  0  1       1  0  0   1 -1  0   1  0 -1
                       0 -1  1   1 -1  0   0 -1  0       0  1 -1  -1  1  0   0  1  0
                       1  0  0   0  0  1   0  1  0      -1  0  0   0  0 -1   0 -1  0
                       0  1 -1   0  0 -1   1  0 -1       0 -1  1   0  0  1  -1  0  1
                      -1  0  1  -1  1  0  -1  0  0       1  0 -1   1 -1  0   1  0  0
                       0 -1  0   1 -1  0   0 -1  1       0  1  0  -1  1  0   0  1 -1
                       1  0 -1   0  0 -1   0  1 -1      -1  0  1   0  0  1   0 -1  1
                       0  1  0   0  0  1   1  0  0       0 -1  0   0  0 -1  -1  0  0
                       1  0 -1   0  1 -1   0  0 -1      -1  0  1   0 -1  1   0  0  1
                       0 -1  0   0 -1  1   1 -1  0       0  1  0   0  1 -1  -1  1  0
                      -1  0  1  -1  0  0  -1  1  0       1  0 -1   1  0  0   1 -1  0
                       0  1  0   1  0  0   0  0  1       0 -1  0  -1  0  0   0  0 -1
                       0  0 -1   0  1 -1   1  0 -1       0  0  1   0 -1  1  -1  0  1
                       1 -1  0   0 -1  1   0 -1  0      -1  1  0   0  1 -1   0  1  0
                       0  0  1   1  0  0   0  1  0       0  0 -1  -1  0  0   0 -1  0
                      -1  1  0  -1  0  0  -1  0  1       1 -1  0   1  0  0   1  0 -1
                       0  0  1   0  1  0   1  0  0       0  0 -1   0 -1  0  -1  0  0
                       1 -1  0   0 -1  0   0 -1  1      -1  1  0   0  1  0   0  1 -1
                       0  0 -1   1  0 -1   0  1 -1       0  0  1  -1  0  1   0 -1  1
                      -1  1  0  -1  0  1  -1  0  0       1 -1  0   1  0 -1   1  0  0
           timopt          -1
            tnons      0.0000000  0.0000000  0.0000000     0.2500000  0.2500000  0.2500000
                       0.0000000  0.0000000  0.0000000     0.2500000  0.2500000  0.2500000
                       0.0000000  0.0000000  0.0000000     0.2500000  0.2500000  0.2500000
                       0.0000000  0.0000000  0.0000000     0.2500000  0.2500000  0.2500000
                       0.0000000  0.0000000  0.0000000     0.2500000  0.2500000  0.2500000
                       0.0000000  0.0000000  0.0000000     0.2500000  0.2500000  0.2500000
                       0.0000000  0.0000000  0.0000000     0.2500000  0.2500000  0.2500000
                       0.0000000  0.0000000  0.0000000     0.2500000  0.2500000  0.2500000
                       0.0000000  0.0000000  0.0000000     0.2500000  0.2500000  0.2500000
                       0.0000000  0.0000000  0.0000000     0.2500000  0.2500000  0.2500000
                       0.0000000  0.0000000  0.0000000     0.2500000  0.2500000  0.2500000
                       0.0000000  0.0000000  0.0000000     0.2500000  0.2500000  0.2500000
                       0.0000000  0.0000000  0.0000000     0.2500000  0.2500000  0.2500000
                       0.0000000  0.0000000  0.0000000     0.2500000  0.2500000  0.2500000
                       0.0000000  0.0000000  0.0000000     0.2500000  0.2500000  0.2500000
                       0.0000000  0.0000000  0.0000000     0.2500000  0.2500000  0.2500000
                       0.0000000  0.0000000  0.0000000     0.2500000  0.2500000  0.2500000
                       0.0000000  0.0000000  0.0000000     0.2500000  0.2500000  0.2500000
                       0.0000000  0.0000000  0.0000000     0.2500000  0.2500000  0.2500000
                       0.0000000  0.0000000  0.0000000     0.2500000  0.2500000  0.2500000
                       0.0000000  0.0000000  0.0000000     0.2500000  0.2500000  0.2500000
                       0.0000000  0.0000000  0.0000000     0.2500000  0.2500000  0.2500000
                       0.0000000  0.0000000  0.0000000     0.2500000  0.2500000  0.2500000
                       0.0000000  0.0000000  0.0000000     0.2500000  0.2500000  0.2500000
            typat      1  1
              wtk        0.00195    0.01563    0.01563    0.01563    0.00781    0.01172
                         0.04688    0.04688    0.04688    0.04688    0.04688    0.02344
                         0.01172    0.04688    0.04688    0.04688    0.02344    0.01172
                         0.04688    0.02344    0.00586    0.04688    0.09375    0.04688
                         0.04688    0.09375    0.04688    0.02344    0.01172
           xangst      0.0000000000E+00  0.0000000000E+00  0.0000000000E+00
                       8.9175000000E-01  8.9175000000E-01  8.9175000000E-01
            xcart      0.0000000000E+00  0.0000000000E+00  0.0000000000E+00
                       1.6851632790E+00  1.6851632790E+00  1.6851632790E+00
             xred      0.0000000000E+00  0.0000000000E+00  0.0000000000E+00
                       2.5000000000E-01  2.5000000000E-01  2.5000000000E-01
            znucl        6.00000

================================================================================

 chkinp: Checking input parameters for consistency, jdtset=   1.

 chkinp: Checking input parameters for consistency, jdtset=   2.

================================================================================
== DATASET  1 ==================================================================
-   mpi_nproc: 256, omp_nthreads: -1 (-1 if OMP is not activated)


--- !DatasetInfo
iteration_state: {dtset: 1, }
dimensions: {natom: 2, nkpt: 29, mband: 480, nsppol: 1, nspinor: 1, nspden: 1, mpw: 941, }
cutoff_energies: {ecut:  40.0, pawecutdg:  -1.0, }
electrons: {nelect:   8.00000000E+00, charge:   0.00000000E+00, occopt:   1.00000000E+00, tsmear:   1.00000000E-02, }
meta: {optdriver: 3, gwcalctyp: 0, }
...

 mkfilename: getwfk from: ../outdata_gs_DS2_WFK

 Exchange-correlation functional for the present dataset will be:
  GGA: Perdew-Burke-Ernzerhof functional - ixc=11
 Citation for XC functional:
  J.P.Perdew, K.Burke, M.Ernzerhof, PRL 77, 3865 (1996)

 SCREENING: Calculation of the susceptibility and dielectric matrices 

 Based on a program developped by R.W. Godby, V. Olevano, G. Onida, and L. Reining.
 Incorporated in ABINIT by V. Olevano, G.-M. Rignanese, and M. Torrent.
.Using single precision arithmetic ; gwpc =  4

 Real(R)+Recip(G) space primitive vectors, cartesian coordinates (Bohr,Bohr^-1):
 R(1)=  0.0000000  3.3703266  3.3703266  G(1)= -0.1483536  0.1483536  0.1483536
 R(2)=  3.3703266  0.0000000  3.3703266  G(2)=  0.1483536 -0.1483536  0.1483536
 R(3)=  3.3703266  3.3703266  0.0000000  G(3)=  0.1483536  0.1483536 -0.1483536
 Unit cell volume ucvol=  7.6567760E+01 bohr^3
 Angles (23,13,12)=  6.00000000E+01  6.00000000E+01  6.00000000E+01 degrees

--- Pseudopotential description ------------------------------------------------
- pspini: atom type   1  psp file is ../C.psp8
- pspatm: opening atomic psp file    ../C.psp8
- C     ONCVPSP-3.2.3.1  r_core=   1.20440   1.26326
-  6.00000   4.00000    170503                znucl, zion, pspdat
    8   11    1    4       600   0.00000      pspcod,pspxc,lmax,lloc,mmax,r2well
    5.99000000000000    4.00000000000000    0.00000000000000   rchrg,fchrg,qchrg
     nproj     2     2
     extension_switch     1
  pspatm : epsatm=    4.31347020
         --- l  ekb(1:nproj) -->
             0    6.481548    0.385504
             1   -4.199961   -0.877517
 pspatm: atomic psp has been read  and splines computed

   6.90155232E+01                                ecore*ucvol(ha*bohr**3)
--------------------------------------------------------------------------------

 ==== K-mesh for the wavefunctions ====
 Number of points in the irreducible wedge :    29
 Reduced coordinates and weights : 

     1)     0.00000000E+00  0.00000000E+00  0.00000000E+00       0.00195
     2)     1.25000000E-01  0.00000000E+00  0.00000000E+00       0.01563
     3)     2.50000000E-01  0.00000000E+00  0.00000000E+00       0.01563
     4)     3.75000000E-01  0.00000000E+00  0.00000000E+00       0.01563
     5)     5.00000000E-01  0.00000000E+00  0.00000000E+00       0.00781
     6)     1.25000000E-01  1.25000000E-01  0.00000000E+00       0.01172
     7)     2.50000000E-01  1.25000000E-01  0.00000000E+00       0.04688
     8)     3.75000000E-01  1.25000000E-01  0.00000000E+00       0.04688
     9)     5.00000000E-01  1.25000000E-01  0.00000000E+00       0.04688
    10)    -3.75000000E-01  1.25000000E-01  0.00000000E+00       0.04688
    11)    -2.50000000E-01  1.25000000E-01  0.00000000E+00       0.04688
    12)    -1.25000000E-01  1.25000000E-01  0.00000000E+00       0.02344
    13)     2.50000000E-01  2.50000000E-01  0.00000000E+00       0.01172
    14)     3.75000000E-01  2.50000000E-01  0.00000000E+00       0.04688
    15)     5.00000000E-01  2.50000000E-01  0.00000000E+00       0.04688
    16)    -3.75000000E-01  2.50000000E-01  0.00000000E+00       0.04688
    17)    -2.50000000E-01  2.50000000E-01  0.00000000E+00       0.02344
    18)     3.75000000E-01  3.75000000E-01  0.00000000E+00       0.01172
    19)     5.00000000E-01  3.75000000E-01  0.00000000E+00       0.04688
    20)    -3.75000000E-01  3.75000000E-01  0.00000000E+00       0.02344
    21)     5.00000000E-01  5.00000000E-01  0.00000000E+00       0.00586
    22)     3.75000000E-01  2.50000000E-01  1.25000000E-01       0.04688
    23)     5.00000000E-01  2.50000000E-01  1.25000000E-01       0.09375
    24)    -3.75000000E-01  2.50000000E-01  1.25000000E-01       0.04688
    25)     5.00000000E-01  3.75000000E-01  1.25000000E-01       0.04688
    26)    -3.75000000E-01  3.75000000E-01  1.25000000E-01       0.09375
    27)    -2.50000000E-01  3.75000000E-01  1.25000000E-01       0.04688
    28)    -3.75000000E-01  5.00000000E-01  1.25000000E-01       0.02344
    29)    -2.50000000E-01  5.00000000E-01  2.50000000E-01       0.01172

 Together with 48 symmetry operations and time-reversal symmetry 
 yields   512 points in the full Brillouin Zone.


 ==== Q-mesh for the screening function ====
 Number of points in the irreducible wedge :    29
 Reduced coordinates and weights : 

     1)     0.00000000E+00  0.00000000E+00  0.00000000E+00       0.00195
     2)     1.25000000E-01  0.00000000E+00  0.00000000E+00       0.01563
     3)     2.50000000E-01  0.00000000E+00  0.00000000E+00       0.01563
     4)     3.75000000E-01  0.00000000E+00  0.00000000E+00       0.01563
     5)     5.00000000E-01  0.00000000E+00  0.00000000E+00       0.00781
     6)     1.25000000E-01  1.25000000E-01  0.00000000E+00       0.01172
     7)     2.50000000E-01  1.25000000E-01  0.00000000E+00       0.04688
     8)     3.75000000E-01  1.25000000E-01  0.00000000E+00       0.04688
     9)     5.00000000E-01  1.25000000E-01  0.00000000E+00       0.04688
    10)    -3.75000000E-01  1.25000000E-01  0.00000000E+00       0.04688
    11)    -2.50000000E-01  1.25000000E-01  0.00000000E+00       0.04688
    12)    -1.25000000E-01  1.25000000E-01  0.00000000E+00       0.02344
    13)     2.50000000E-01  2.50000000E-01  0.00000000E+00       0.01172
    14)     3.75000000E-01  2.50000000E-01  0.00000000E+00       0.04688
    15)     5.00000000E-01  2.50000000E-01  0.00000000E+00       0.04688
    16)    -3.75000000E-01  2.50000000E-01  0.00000000E+00       0.04688
    17)    -2.50000000E-01  2.50000000E-01  0.00000000E+00       0.02344
    18)     3.75000000E-01  3.75000000E-01  0.00000000E+00       0.01172
    19)     5.00000000E-01  3.75000000E-01  0.00000000E+00       0.04688
    20)    -3.75000000E-01  3.75000000E-01  0.00000000E+00       0.02344
    21)     5.00000000E-01  5.00000000E-01  0.00000000E+00       0.00586
    22)     3.75000000E-01  2.50000000E-01  1.25000000E-01       0.04688
    23)     5.00000000E-01  2.50000000E-01  1.25000000E-01       0.09375
    24)    -3.75000000E-01  2.50000000E-01  1.25000000E-01       0.04688
    25)     5.00000000E-01  3.75000000E-01  1.25000000E-01       0.04688
    26)    -3.75000000E-01  3.75000000E-01  1.25000000E-01       0.09375
    27)    -2.50000000E-01  3.75000000E-01  1.25000000E-01       0.04688
    28)    -3.75000000E-01  5.00000000E-01  1.25000000E-01       0.02344
    29)    -2.50000000E-01  5.00000000E-01  2.50000000E-01       0.01172

 Together with 48 symmetry operations and time-reversal symmetry 
 yields   512 points in the full Brillouin Zone.


 setmesh: FFT mesh size selected  =    24x   24x   24
          total number of points  =        13824


- screening: taking advantage of time-reversal symmetry 
- Maximum band index for partially occupied states nbvw = 4
- Remaining bands to be divided among processors   nbcw = 476
- Number of bands treated by each node ~1

 Number of electrons calculated from density =    8.0000; Expected =    8.0000
 average of density, n =  0.104483
 r_s =    1.3171
 omega_plasma =   31.1801 [eV]


 calculating chi0 at frequencies [eV] :
  1    0.000000E+00    0.000000E+00
  2    0.000000E+00    3.118011E+01


--------------------------------------------------------------------------------
  q-point number  1        q = ( 0.000000, 0.000000, 0.000000) [r.l.u.]
--------------------------------------------------------------------------------
  chi0(G,G') at the    1 th omega   0.0000   0.0000 [eV]
       1       2       3       4       5       6       7       8       9
    1  -0.000   0.000  -0.000  -0.000   0.000   0.000  -0.000  -0.000   0.000
       -0.000   0.000   0.000  -0.000  -0.000   0.000   0.000  -0.000  -0.000

    2   0.000  -8.786  -0.000  -1.647   0.000  -1.647   0.000  -1.647   0.000
       -0.000   0.000  -2.825   0.000  -1.225   0.000  -1.225   0.000  -1.225

  chi0(G,G') at the    2 th omega   0.0000  31.1801 [eV]
       1       2       3       4       5       6       7       8       9
    1  -0.000   0.000  -0.000  -0.000   0.000   0.000  -0.000  -0.000   0.000
        0.000   0.000   0.000  -0.000  -0.000   0.000   0.000  -0.000  -0.000

    2   0.000  -4.082  -0.000  -0.351   0.000  -0.351   0.000  -0.351   0.000
       -0.000   0.000  -0.588   0.000  -0.197   0.000  -0.197   0.000  -0.197

 For q-point:  0.000010 0.000020 0.000030
  dielectric constant =   5.5144
  dielectric constant without local fields =   5.9498

  Average fulfillment of the sum rule on Im[epsilon] for q-point    1 :    100.87  [%]
  Heads and wings of the symmetrical epsilon^-1(G,G') 

   Upper and lower wings at the    1 th omega   0.0000   0.0000 [eV]
       1       2       3       4       5       6       7       8       9
      0.181   0.007  -0.007  -0.021   0.021   0.021  -0.021  -0.007   0.007
      0.000   0.007   0.007  -0.021  -0.021   0.021   0.021  -0.007  -0.007
       1       2       3       4       5       6       7       8       9
      0.181   0.007  -0.007  -0.021   0.021   0.021  -0.021  -0.007   0.007
      0.000  -0.007  -0.007   0.021   0.021  -0.021  -0.021   0.007   0.007


   Upper and lower wings at the    2 th omega   0.0000  31.1801 [eV]
       1       2       3       4       5       6       7       8       9
      0.600   0.007  -0.007  -0.021   0.021   0.021  -0.021  -0.007   0.007
     -0.000   0.007   0.007  -0.021  -0.021   0.021   0.021  -0.007  -0.007
       1       2       3       4       5       6       7       8       9
      0.600   0.007  -0.007  -0.021   0.021   0.021  -0.021  -0.007   0.007
     -0.000  -0.007  -0.007   0.021   0.021  -0.021  -0.021   0.007   0.007




--------------------------------------------------------------------------------
  q-point number  2        q = ( 0.125000, 0.000000, 0.000000) [r.l.u.]
--------------------------------------------------------------------------------
  chi0(G,G') at the    1 th omega   0.0000   0.0000 [eV]
       1       2       3       4       5       6       7       8       9
    1  -1.060  -0.408   0.362  -0.105  -0.316  -0.105  -0.316  -0.105  -0.316
        0.000  -0.408  -0.362  -0.105   0.316  -0.105   0.316  -0.105   0.316

    2  -0.408  -8.856  -0.000  -1.684   0.000  -1.684   0.000  -1.684   0.000
        0.408   0.000  -2.743   0.000  -1.117  -0.000  -1.117  -0.000  -1.117

  chi0(G,G') at the    2 th omega   0.0000  31.1801 [eV]
       1       2       3       4       5       6       7       8       9
    1  -0.166  -0.114   0.097   0.006  -0.062   0.006  -0.062   0.006  -0.062
        0.000  -0.114  -0.097   0.006   0.062   0.006   0.062   0.006   0.062

    2  -0.114  -4.311  -0.000  -0.351   0.000  -0.351   0.000  -0.351   0.000
        0.114   0.000  -0.577   0.000  -0.193   0.000  -0.193   0.000  -0.193

  Average fulfillment of the sum rule on Im[epsilon] for q-point    2 :    101.30  [%]


--------------------------------------------------------------------------------
  q-point number  3        q = ( 0.250000, 0.000000, 0.000000) [r.l.u.]
--------------------------------------------------------------------------------
  chi0(G,G') at the    1 th omega   0.0000   0.0000 [eV]
       1       2       3       4       5       6       7       8       9
    1  -3.116  -0.708   0.572  -0.523  -0.704  -0.523  -0.704  -0.523  -0.704
        0.000  -0.708  -0.572  -0.523   0.704  -0.523   0.704  -0.523   0.704

    2  -0.708  -8.609  -0.000  -1.536   0.000  -1.536   0.000  -1.536   0.000
        0.708   0.000  -2.548   0.000  -0.933   0.000  -0.933   0.000  -0.933

  chi0(G,G') at the    2 th omega   0.0000  31.1801 [eV]
       1       2       3       4       5       6       7       8       9
    1  -0.622  -0.232   0.169  -0.047  -0.163  -0.047  -0.163  -0.047  -0.163
        0.000  -0.232  -0.169  -0.047   0.163  -0.047   0.163  -0.047   0.163

    2  -0.232  -4.417  -0.000  -0.339   0.000  -0.339   0.000  -0.339   0.000
        0.232   0.000  -0.542   0.000  -0.181   0.000  -0.181   0.000  -0.181

  Average fulfillment of the sum rule on Im[epsilon] for q-point    3 :    101.19  [%]


--------------------------------------------------------------------------------
  q-point number  4        q = ( 0.375000, 0.000000, 0.000000) [r.l.u.]
--------------------------------------------------------------------------------
  chi0(G,G') at the    1 th omega   0.0000   0.0000 [eV]
       1       2       3       4       5       6       7       8       9
    1  -4.910  -0.894   0.667  -0.959  -0.949  -0.959  -0.949  -0.959  -0.949
        0.000  -0.894  -0.667  -0.959   0.949  -0.959   0.949  -0.959   0.949

    2  -0.894  -8.114  -0.000  -1.264  -0.000  -1.264   0.000  -1.264  -0.000
        0.894   0.000  -2.316   0.000  -0.730   0.000  -0.730   0.000  -0.730

  chi0(G,G') at the    2 th omega   0.0000  31.1801 [eV]
       1       2       3       4       5       6       7       8       9
    1  -1.263  -0.342   0.212  -0.146  -0.279  -0.146  -0.279  -0.146  -0.279
        0.000  -0.342  -0.212  -0.146   0.279  -0.146   0.279  -0.146   0.279

    2  -0.342  -4.412  -0.000  -0.313   0.000  -0.313   0.000  -0.313   0.000
        0.342   0.000  -0.486   0.000  -0.163   0.000  -0.163  -0.000  -0.163

  Average fulfillment of the sum rule on Im[epsilon] for q-point    4 :    101.10  [%]


--------------------------------------------------------------------------------
  q-point number  5        q = ( 0.500000, 0.000000, 0.000000) [r.l.u.]
--------------------------------------------------------------------------------
  chi0(G,G') at the    1 th omega   0.0000   0.0000 [eV]
       1       2       3       4       5       6       7       8       9
    1  -6.210  -1.009   0.694  -1.310  -1.065  -1.310  -1.065  -1.310  -1.065
        0.000  -1.009  -0.694  -1.310   1.065  -1.310   1.065  -1.310   1.065

    2  -1.009  -7.471  -0.000  -0.964   0.000  -0.964   0.000  -0.964   0.000
        1.009   0.000  -2.075   0.000  -0.559   0.000  -0.559   0.000  -0.559

  chi0(G,G') at the    2 th omega   0.0000  31.1801 [eV]
       1       2       3       4       5       6       7       8       9
    1  -1.972  -0.434   0.226  -0.270  -0.392  -0.270  -0.392  -0.270  -0.392
        0.000  -0.434  -0.226  -0.270   0.392  -0.270   0.392  -0.270   0.392

    2  -0.434  -4.308  -0.000  -0.275  -0.000  -0.275   0.000  -0.275  -0.000
        0.434   0.000  -0.410   0.000  -0.143   0.000  -0.143   0.000  -0.143

  Average fulfillment of the sum rule on Im[epsilon] for q-point    5 :    101.06  [%]


--------------------------------------------------------------------------------
  q-point number  6        q = ( 0.125000, 0.125000, 0.000000) [r.l.u.]
--------------------------------------------------------------------------------
  chi0(G,G') at the    1 th omega   0.0000   0.0000 [eV]
       1       2       3       4       5       6       7       8       9
    1  -1.402  -0.452   0.018   0.018  -0.452   0.018  -0.452  -0.452   0.018
        0.000  -0.452  -0.018   0.018   0.452   0.018   0.452  -0.452  -0.018

    2  -0.452  -8.879  -0.000  -1.623   0.000  -1.623  -0.000  -1.740  -0.000
        0.452   0.000  -2.592   0.000  -1.055  -0.000  -1.055  -0.000  -1.104

  chi0(G,G') at the    2 th omega   0.0000  31.1801 [eV]
       1       2       3       4       5       6       7       8       9
    1  -0.220  -0.099   0.037   0.037  -0.099   0.037  -0.099  -0.099   0.037
        0.000  -0.099  -0.037   0.037   0.099   0.037   0.099  -0.099  -0.037

    2  -0.099  -4.261  -0.000  -0.351   0.000  -0.351  -0.000  -0.356  -0.000
        0.099   0.000  -0.566   0.000  -0.190  -0.000  -0.190  -0.000  -0.188

  Average fulfillment of the sum rule on Im[epsilon] for q-point    6 :    101.29  [%]


--------------------------------------------------------------------------------
  q-point number  7        q = ( 0.250000, 0.125000, 0.000000) [r.l.u.]
--------------------------------------------------------------------------------
  chi0(G,G') at the    1 th omega   0.0000   0.0000 [eV]
       1       2       3       4       5       6       7       8       9
    1  -3.083  -0.740   0.246  -0.280  -0.758  -0.280  -0.758  -0.745  -0.490
        0.000  -0.740  -0.246  -0.280   0.758  -0.280   0.758  -0.745   0.490

    2  -0.740  -8.703  -0.000  -1.546  -0.000  -1.546  -0.000  -1.616  -0.000
        0.740   0.000  -2.451   0.000  -0.919   0.000  -0.919  -0.000  -0.945

  chi0(G,G') at the    2 th omega   0.0000  31.1801 [eV]
       1       2       3       4       5       6       7       8       9
    1  -0.576  -0.212   0.115   0.007  -0.178   0.007  -0.178  -0.134  -0.071
        0.000  -0.212  -0.115   0.007   0.178   0.007   0.178  -0.134   0.071

    2  -0.212  -4.399  -0.000  -0.341  -0.000  -0.341  -0.000  -0.347  -0.000
        0.212   0.000  -0.539  -0.000  -0.181   0.000  -0.181  -0.000  -0.177

  Average fulfillment of the sum rule on Im[epsilon] for q-point    7 :    101.20  [%]


--------------------------------------------------------------------------------
  q-point number  8        q = ( 0.375000, 0.125000, 0.000000) [r.l.u.]
--------------------------------------------------------------------------------
  chi0(G,G') at the    1 th omega   0.0000   0.0000 [eV]
       1       2       3       4       5       6       7       8       9
    1  -4.875  -0.923   0.360  -0.742  -1.001  -0.742  -1.001  -1.089  -0.842
        0.000  -0.923  -0.360  -0.742   1.001  -0.742   1.001  -1.089   0.842

    2  -0.923  -8.273  -0.000  -1.326   0.000  -1.326   0.000  -1.354   0.000
        0.923   0.000  -2.256   0.000  -0.742   0.000  -0.742   0.000  -0.756

  chi0(G,G') at the    2 th omega   0.0000  31.1801 [eV]
       1       2       3       4       5       6       7       8       9
    1  -1.149  -0.321   0.165  -0.078  -0.279  -0.078  -0.279  -0.212  -0.203
        0.000  -0.321  -0.165  -0.078   0.279  -0.078   0.279  -0.212   0.203

    2  -0.321  -4.424  -0.000  -0.319   0.000  -0.319   0.000  -0.324   0.000
        0.321   0.000  -0.491  -0.000  -0.166   0.000  -0.166   0.000  -0.161

  Average fulfillment of the sum rule on Im[epsilon] for q-point    8 :    101.11  [%]


--------------------------------------------------------------------------------
  q-point number  9        q = ( 0.500000, 0.125000, 0.000000) [r.l.u.]
--------------------------------------------------------------------------------
  chi0(G,G') at the    1 th omega   0.0000   0.0000 [eV]
       1       2       3       4       5       6       7       8       9
    1  -6.236  -1.032   0.401  -1.155  -1.121  -1.155  -1.121  -1.381  -1.032
        0.000  -1.032  -0.401  -1.155   1.121  -1.155   1.121  -1.381   1.032

    2  -1.032  -7.671  -0.000  -1.043   0.000  -1.043   0.000  -1.043   0.000
        1.032   0.000  -2.041   0.000  -0.578   0.000  -0.578   0.000  -0.575

  chi0(G,G') at the    2 th omega   0.0000  31.1801 [eV]
       1       2       3       4       5       6       7       8       9
    1  -1.825  -0.415   0.188  -0.198  -0.382  -0.198  -0.382  -0.316  -0.334
        0.000  -0.415  -0.188  -0.198   0.382  -0.198   0.382  -0.316   0.334

    2  -0.415  -4.348  -0.000  -0.284  -0.000  -0.284   0.000  -0.291   0.000
        0.415   0.000  -0.423  -0.000  -0.147  -0.000  -0.147   0.000  -0.142

  Average fulfillment of the sum rule on Im[epsilon] for q-point    9 :    101.06  [%]


--------------------------------------------------------------------------------
  q-point number 10        q = (-0.375000, 0.125000, 0.000000) [r.l.u.]
--------------------------------------------------------------------------------
  chi0(G,G') at the    1 th omega   0.0000   0.0000 [eV]
       1       2       3       4       5       6       7       8       9
    1  -5.808   0.392  -0.990  -1.069  -1.229  -1.069  -1.229  -1.047  -0.847
        0.000   0.392   0.990  -1.069   1.229  -1.069   1.229  -1.047   0.847

    2   0.392  -7.192  -0.000  -1.034  -0.000  -1.034  -0.000  -1.131  -0.000
       -0.392   0.000  -2.125  -0.000  -0.641  -0.000  -0.641  -0.000  -0.863

  chi0(G,G') at the    2 th omega   0.0000  31.1801 [eV]
       1       2       3       4       5       6       7       8       9
    1  -1.594   0.183  -0.386  -0.315  -0.245  -0.315  -0.245  -0.360  -0.096
        0.000   0.183   0.386  -0.315   0.245  -0.315   0.245  -0.360   0.096

    2   0.183  -2.502  -0.000  -0.276   0.000  -0.276   0.000  -0.264   0.000
       -0.183   0.000  -0.448  -0.000  -0.111  -0.000  -0.111  -0.000  -0.106

  Average fulfillment of the sum rule on Im[epsilon] for q-point   10 :    101.07  [%]


--------------------------------------------------------------------------------
  q-point number 11        q = (-0.250000, 0.125000, 0.000000) [r.l.u.]
--------------------------------------------------------------------------------
  chi0(G,G') at the    1 th omega   0.0000   0.0000 [eV]
       1       2       3       4       5       6       7       8       9
    1  -4.286   0.327  -0.859  -0.867  -0.880  -0.867  -0.880  -0.899  -0.339
        0.000   0.327   0.859  -0.867   0.880  -0.867   0.880  -0.899   0.339

    2   0.327  -7.887  -0.000  -1.199   0.000  -1.199   0.000  -1.309  -0.000
       -0.327   0.000  -2.336   0.000  -0.835   0.000  -0.835   0.000  -1.064

  chi0(G,G') at the    2 th omega   0.0000  31.1801 [eV]
       1       2       3       4       5       6       7       8       9
    1  -0.939   0.151  -0.285  -0.193  -0.144  -0.193  -0.144  -0.262   0.021
        0.000   0.151   0.285  -0.193   0.144  -0.193   0.144  -0.262  -0.021

    2   0.151  -3.112  -0.000  -0.309   0.000  -0.309   0.000  -0.305   0.000
       -0.151   0.000  -0.510   0.000  -0.147   0.000  -0.147   0.000  -0.145

  Average fulfillment of the sum rule on Im[epsilon] for q-point   11 :    101.14  [%]


--------------------------------------------------------------------------------
  q-point number 12        q = (-0.125000, 0.125000, 0.000000) [r.l.u.]
--------------------------------------------------------------------------------
  chi0(G,G') at the    1 th omega   0.0000   0.0000 [eV]
       1       2       3       4       5       6       7       8       9
    1  -2.414   0.174  -0.639  -0.512  -0.512  -0.512  -0.512  -0.639   0.174
        0.000   0.174   0.639  -0.512   0.512  -0.512   0.512  -0.639  -0.174

    2   0.174  -8.413   0.000  -1.383  -0.000  -1.383  -0.000  -1.508   0.000
       -0.174   0.000  -2.517  -0.000  -1.003  -0.000  -1.003   0.000  -1.190

  chi0(G,G') at the    2 th omega   0.0000  31.1801 [eV]
       1       2       3       4       5       6       7       8       9
    1  -0.427   0.091  -0.174  -0.078  -0.078  -0.078  -0.078  -0.174   0.091
        0.000   0.091   0.174  -0.078   0.078  -0.078   0.078  -0.174  -0.091

    2   0.091  -3.617   0.000  -0.334  -0.000  -0.334  -0.000  -0.334   0.000
       -0.091   0.000  -0.551  -0.000  -0.173  -0.000  -0.173   0.000  -0.173

  Average fulfillment of the sum rule on Im[epsilon] for q-point   12 :    101.24  [%]


--------------------------------------------------------------------------------
  q-point number 13        q = ( 0.250000, 0.250000, 0.000000) [r.l.u.]
--------------------------------------------------------------------------------
  chi0(G,G') at the    1 th omega   0.0000   0.0000 [eV]
       1       2       3       4       5       6       7       8       9
    1  -4.071  -0.936  -0.325  -0.325  -0.936  -0.325  -0.936  -0.936  -0.325
        0.000  -0.936   0.325  -0.325   0.936  -0.325   0.936  -0.936   0.325

    2  -0.936  -8.732   0.000  -1.515  -0.000  -1.515  -0.000  -1.546   0.000
        0.936   0.000  -2.105   0.000  -0.784   0.000  -0.784  -0.000  -0.844

  chi0(G,G') at the    2 th omega   0.0000  31.1801 [eV]
       1       2       3       4       5       6       7       8       9
    1  -0.812  -0.232   0.003   0.003  -0.232   0.003  -0.232  -0.232   0.003
        0.000  -0.232  -0.003   0.003   0.232   0.003   0.232  -0.232  -0.003

    2  -0.232  -4.385   0.000  -0.348  -0.000  -0.348   0.000  -0.341   0.000
        0.232   0.000  -0.503  -0.000  -0.169   0.000  -0.169   0.000  -0.163

  Average fulfillment of the sum rule on Im[epsilon] for q-point   13 :    101.16  [%]


--------------------------------------------------------------------------------
  q-point number 14        q = ( 0.375000, 0.250000, 0.000000) [r.l.u.]
--------------------------------------------------------------------------------
  chi0(G,G') at the    1 th omega   0.0000   0.0000 [eV]
       1       2       3       4       5       6       7       8       9
    1  -5.479  -1.067  -0.231  -0.652  -1.123  -0.652  -1.123  -1.180  -0.774
        0.000  -1.067   0.231  -0.652   1.123  -0.652   1.123  -1.180   0.774

    2  -1.067  -8.345  -0.000  -1.340  -0.000  -1.340  -0.000  -1.343  -0.000
        1.067   0.000  -1.980   0.000  -0.663   0.000  -0.663   0.000  -0.696

  chi0(G,G') at the    2 th omega   0.0000  31.1801 [eV]
       1       2       3       4       5       6       7       8       9
    1  -1.275  -0.330   0.055  -0.058  -0.312  -0.058  -0.312  -0.289  -0.139
        0.000  -0.330  -0.055  -0.058   0.312  -0.058   0.312  -0.289   0.139

    2  -0.330  -4.428  -0.000  -0.325  -0.000  -0.325  -0.000  -0.323  -0.000
        0.330   0.000  -0.464   0.000  -0.159   0.000  -0.159   0.000  -0.150

  Average fulfillment of the sum rule on Im[epsilon] for q-point   14 :    101.10  [%]


--------------------------------------------------------------------------------
  q-point number 15        q = ( 0.500000, 0.250000, 0.000000) [r.l.u.]
--------------------------------------------------------------------------------
  chi0(G,G') at the    1 th omega   0.0000   0.0000 [eV]
       1       2       3       4       5       6       7       8       9
    1  -6.744  -1.135  -0.196  -1.068  -1.236  -1.068  -1.236  -1.415  -1.039
        0.000  -1.135   0.196  -1.068   1.236  -1.068   1.236  -1.415   1.039

    2  -1.135  -7.792  -0.000  -1.086   0.000  -1.086   0.000  -1.065   0.000
        1.135   0.000  -1.828   0.000  -0.534   0.000  -0.534  -0.000  -0.542

  chi0(G,G') at the    2 th omega   0.0000  31.1801 [eV]
       1       2       3       4       5       6       7       8       9
    1  -1.869  -0.419   0.083  -0.162  -0.400  -0.162  -0.400  -0.371  -0.284
        0.000  -0.419  -0.083  -0.162   0.400  -0.162   0.400  -0.371   0.284

    2  -0.419  -4.371  -0.000  -0.291   0.000  -0.291   0.000  -0.294   0.000
        0.419   0.000  -0.406  -0.000  -0.144  -0.000  -0.144  -0.000  -0.134

  Average fulfillment of the sum rule on Im[epsilon] for q-point   15 :    101.06  [%]


--------------------------------------------------------------------------------
  q-point number 16        q = (-0.375000, 0.250000, 0.000000) [r.l.u.]
--------------------------------------------------------------------------------
  chi0(G,G') at the    1 th omega   0.0000   0.0000 [eV]
       1       2       3       4       5       6       7       8       9
    1  -6.934  -0.199  -1.084  -1.298  -1.426  -1.298  -1.426  -1.093  -0.787
        0.000  -0.199   1.084  -1.298   1.426  -1.298   1.426  -1.093   0.787

    2  -0.199  -7.642  -0.000  -1.139   0.000  -1.139   0.000  -1.036   0.000
        0.199   0.000  -1.831   0.000  -0.372   0.000  -0.372  -0.000  -0.711

  chi0(G,G') at the    2 th omega   0.0000  31.1801 [eV]
       1       2       3       4       5       6       7       8       9
    1  -2.071   0.087  -0.442  -0.380  -0.356  -0.380  -0.356  -0.435  -0.066
        0.000   0.087   0.442  -0.380   0.356  -0.380   0.356  -0.435   0.066

    2   0.087  -2.495  -0.000  -0.290   0.000  -0.290   0.000  -0.235  -0.000
       -0.087   0.000  -0.385  -0.000  -0.081   0.000  -0.081   0.000  -0.072

  Average fulfillment of the sum rule on Im[epsilon] for q-point   16 :    101.05  [%]


--------------------------------------------------------------------------------
  q-point number 17        q = (-0.250000, 0.250000, 0.000000) [r.l.u.]
--------------------------------------------------------------------------------
  chi0(G,G') at the    1 th omega   0.0000   0.0000 [eV]
       1       2       3       4       5       6       7       8       9
    1  -5.772  -0.239  -1.020  -1.153  -1.153  -1.153  -1.153  -1.020  -0.239
        0.000  -0.239   1.020  -1.153   1.153  -1.153   1.153  -1.020   0.239

    2  -0.239  -8.240  -0.000  -1.266  -0.000  -1.266  -0.000  -1.198   0.000
        0.239   0.000  -2.002   0.000  -0.551   0.000  -0.551   0.000  -0.941

  chi0(G,G') at the    2 th omega   0.0000  31.1801 [eV]
       1       2       3       4       5       6       7       8       9
    1  -1.456   0.066  -0.358  -0.262  -0.262  -0.262  -0.262  -0.358   0.066
        0.000   0.066   0.358  -0.262   0.262  -0.262   0.262  -0.358  -0.066

    2   0.066  -3.079  -0.000  -0.321  -0.000  -0.321  -0.000  -0.283   0.000
       -0.066   0.000  -0.449   0.000  -0.115   0.000  -0.115   0.000  -0.112

  Average fulfillment of the sum rule on Im[epsilon] for q-point   17 :    101.08  [%]


--------------------------------------------------------------------------------
  q-point number 18        q = ( 0.375000, 0.375000, 0.000000) [r.l.u.]
--------------------------------------------------------------------------------
  chi0(G,G') at the    1 th omega   0.0000   0.0000 [eV]
       1       2       3       4       5       6       7       8       9
    1  -6.338  -1.237  -0.741  -0.741  -1.237  -0.741  -1.237  -1.237  -0.741
        0.000  -1.237   0.741  -0.741   1.237  -0.741   1.237  -1.237   0.741

    2  -1.237  -8.332  -0.000  -1.320  -0.000  -1.320  -0.000  -1.219  -0.000
        1.237   0.000  -1.622   0.000  -0.543   0.000  -0.543  -0.000  -0.568

  chi0(G,G') at the    2 th omega   0.0000  31.1801 [eV]
       1       2       3       4       5       6       7       8       9
    1  -1.613  -0.369  -0.091  -0.091  -0.369  -0.091  -0.369  -0.369  -0.091
        0.000  -0.369   0.091  -0.091   0.369  -0.091   0.369  -0.369   0.091

    2  -0.369  -4.430  -0.000  -0.336  -0.000  -0.336  -0.000  -0.309  -0.000
        0.369   0.000  -0.411   0.000  -0.143   0.000  -0.143   0.000  -0.130

  Average fulfillment of the sum rule on Im[epsilon] for q-point   18 :    101.07  [%]


--------------------------------------------------------------------------------
  q-point number 19        q = ( 0.500000, 0.375000, 0.000000) [r.l.u.]
--------------------------------------------------------------------------------
  chi0(G,G') at the    1 th omega   0.0000   0.0000 [eV]
       1       2       3       4       5       6       7       8       9
    1  -7.306  -1.258  -0.739  -1.033  -1.324  -1.033  -1.324  -1.408  -1.073
        0.000  -1.258   0.739  -1.033   1.324  -1.033   1.324  -1.408   1.073

    2  -1.258  -7.819  -0.000  -1.093   0.000  -1.093  -0.000  -1.015   0.000
        1.258   0.000  -1.538  -0.000  -0.457  -0.000  -0.457   0.000  -0.456

  chi0(G,G') at the    2 th omega   0.0000  31.1801 [eV]
       1       2       3       4       5       6       7       8       9
    1  -2.093  -0.444  -0.063  -0.171  -0.438  -0.171  -0.438  -0.430  -0.246
        0.000  -0.444   0.063  -0.171   0.438  -0.171   0.438  -0.430   0.246

    2  -0.444  -4.383  -0.000  -0.299  -0.000  -0.299  -0.000  -0.285   0.000
        0.444   0.000  -0.364  -0.000  -0.132  -0.000  -0.132   0.000  -0.117

  Average fulfillment of the sum rule on Im[epsilon] for q-point   19 :    101.05  [%]


--------------------------------------------------------------------------------
  q-point number 20        q = (-0.375000, 0.375000, 0.000000) [r.l.u.]
--------------------------------------------------------------------------------
  chi0(G,G') at the    1 th omega   0.0000   0.0000 [eV]
       1       2       3       4       5       6       7       8       9
    1  -7.765  -0.756  -1.111  -1.517  -1.517  -1.517  -1.517  -1.111  -0.756
        0.000  -0.756   1.111  -1.517   1.517  -1.517   1.517  -1.111   0.756

    2  -0.756  -8.113   0.000  -1.311  -0.000  -1.311  -0.000  -0.827  -0.000
        0.756   0.000  -1.535  -0.000  -0.166   0.000  -0.166  -0.000  -0.438

  chi0(G,G') at the    2 th omega   0.0000  31.1801 [eV]
       1       2       3       4       5       6       7       8       9
    1  -2.610  -0.055  -0.499  -0.461  -0.461  -0.461  -0.461  -0.499  -0.055
        0.000  -0.055   0.499  -0.461   0.461  -0.461   0.461  -0.499   0.055

    2  -0.055  -2.630   0.000  -0.320  -0.000  -0.320  -0.000  -0.197  -0.000
        0.055   0.000  -0.306  -0.000  -0.049   0.000  -0.049  -0.000  -0.036

  Average fulfillment of the sum rule on Im[epsilon] for q-point   20 :    101.04  [%]


--------------------------------------------------------------------------------
  q-point number 21        q = ( 0.500000, 0.500000, 0.000000) [r.l.u.]
--------------------------------------------------------------------------------
  chi0(G,G') at the    1 th omega   0.0000   0.0000 [eV]
       1       2       3       4       5       6       7       8       9
    1  -7.885  -1.379  -1.120  -1.120  -1.379  -1.120  -1.379  -1.379  -1.120
        0.000  -1.379   1.120  -1.120   1.379  -1.120   1.379  -1.379   1.120

    2  -1.379  -7.774  -0.000  -1.083  -0.000  -1.083   0.000  -0.894  -0.000
        1.379   0.000  -1.225  -0.000  -0.369   0.000  -0.369   0.000  -0.327

  chi0(G,G') at the    2 th omega   0.0000  31.1801 [eV]
       1       2       3       4       5       6       7       8       9
    1  -2.452  -0.488  -0.222  -0.222  -0.488  -0.222  -0.488  -0.488  -0.222
        0.000  -0.488   0.222  -0.222   0.488  -0.222   0.488  -0.488   0.222

    2  -0.488  -4.388  -0.000  -0.311  -0.000  -0.311  -0.000  -0.268  -0.000
        0.488   0.000  -0.305  -0.000  -0.115   0.000  -0.115  -0.000  -0.095

  Average fulfillment of the sum rule on Im[epsilon] for q-point   21 :    101.04  [%]


--------------------------------------------------------------------------------
  q-point number 22        q = ( 0.375000, 0.250000, 0.125000) [r.l.u.]
--------------------------------------------------------------------------------
  chi0(G,G') at the    1 th omega   0.0000   0.0000 [eV]
       1       2       3       4       5       6       7       8       9
    1  -4.581  -0.945  -0.128  -0.741  -1.017  -0.128  -0.945  -1.017  -0.741
        0.000  -0.945   0.128  -0.741   1.017  -0.128   0.945  -1.017   0.741

    2  -0.945  -8.514  -0.000  -1.451   0.000  -1.376   0.000  -1.469  -0.000
        0.945   0.000  -2.152   0.000  -0.736   0.000  -0.788   0.000  -0.773

  chi0(G,G') at the    2 th omega   0.0000  31.1801 [eV]
       1       2       3       4       5       6       7       8       9
    1  -0.985  -0.281   0.070  -0.117  -0.225   0.070  -0.281  -0.225  -0.117
        0.000  -0.281  -0.070  -0.117   0.225   0.070   0.281  -0.225   0.117

    2  -0.281  -4.423  -0.000  -0.343   0.000  -0.317   0.000  -0.336  -0.000
        0.281   0.000  -0.495   0.000  -0.163   0.000  -0.172   0.000  -0.160

  Average fulfillment of the sum rule on Im[epsilon] for q-point   22 :    101.14  [%]


--------------------------------------------------------------------------------
  q-point number 23        q = ( 0.500000, 0.250000, 0.125000) [r.l.u.]
--------------------------------------------------------------------------------
  chi0(G,G') at the    1 th omega   0.0000   0.0000 [eV]
       1       2       3       4       5       6       7       8       9
    1  -6.049  -1.053  -0.057  -1.100  -1.206  -0.653  -1.093  -1.295  -1.029
        0.000  -1.053   0.057  -1.100   1.206  -0.653   1.093  -1.295   1.029

    2  -1.053  -8.020  -0.000  -1.184   0.000  -1.181   0.000  -1.193  -0.000
        1.053   0.000  -1.992   0.000  -0.594   0.000  -0.640   0.000  -0.616

  chi0(G,G') at the    2 th omega   0.0000  31.1801 [eV]
       1       2       3       4       5       6       7       8       9
    1  -1.565  -0.378   0.108  -0.205  -0.329  -0.031  -0.365  -0.304  -0.254
        0.000  -0.378  -0.108  -0.205   0.329  -0.031   0.365  -0.304   0.254

    2  -0.378  -4.403  -0.000  -0.313  -0.000  -0.289   0.000  -0.310  -0.000
        0.378   0.000  -0.442   0.000  -0.148   0.000  -0.156   0.000  -0.144

  Average fulfillment of the sum rule on Im[epsilon] for q-point   23 :    101.08  [%]


--------------------------------------------------------------------------------
  q-point number 24        q = (-0.375000, 0.250000, 0.125000) [r.l.u.]
--------------------------------------------------------------------------------
  chi0(G,G') at the    1 th omega   0.0000   0.0000 [eV]
       1       2       3       4       5       6       7       8       9
    1  -7.124  -0.038  -1.111  -1.291  -1.416  -1.182  -1.528  -1.145  -1.112
        0.000  -0.038   1.111  -1.291   1.416  -1.182   1.528  -1.145   1.112

    2  -0.038  -7.124  -0.000  -1.153   0.000  -0.823   0.000  -1.052   0.000
        0.038   0.000  -1.799   0.000  -0.362   0.000  -0.380   0.000  -0.545

  chi0(G,G') at the    2 th omega   0.0000  31.1801 [eV]
       1       2       3       4       5       6       7       8       9
    1  -2.211   0.121  -0.459  -0.430  -0.316  -0.383  -0.402  -0.448  -0.167
        0.000   0.121   0.459  -0.430   0.316  -0.383   0.402  -0.448   0.167

    2   0.121  -2.211  -0.000  -0.266   0.000  -0.255   0.000  -0.229   0.000
       -0.121   0.000  -0.371   0.000  -0.062   0.000  -0.085   0.000  -0.060

  Average fulfillment of the sum rule on Im[epsilon] for q-point   24 :    101.05  [%]


--------------------------------------------------------------------------------
  q-point number 25        q = ( 0.500000, 0.375000, 0.125000) [r.l.u.]
--------------------------------------------------------------------------------
  chi0(G,G') at the    1 th omega   0.0000   0.0000 [eV]
       1       2       3       4       5       6       7       8       9
    1  -6.619  -1.183  -0.610  -1.020  -1.323  -0.610  -1.183  -1.323  -1.020
        0.000  -1.183   0.610  -1.020   1.323  -0.610   1.183  -1.323   1.020

    2  -1.183  -8.068  -0.000  -1.174  -0.000  -1.212   0.000  -1.158  -0.000
        1.183   0.000  -1.714   0.000  -0.519   0.000  -0.560   0.000  -0.543

  chi0(G,G') at the    2 th omega   0.0000  31.1801 [eV]
       1       2       3       4       5       6       7       8       9
    1  -1.745  -0.396  -0.019  -0.205  -0.371  -0.019  -0.396  -0.371  -0.205
        0.000  -0.396   0.019  -0.205   0.371  -0.019   0.396  -0.371   0.205

    2  -0.396  -4.413  -0.000  -0.323  -0.000  -0.294   0.000  -0.304  -0.000
        0.396   0.000  -0.408  -0.000  -0.138   0.000  -0.148   0.000  -0.130

  Average fulfillment of the sum rule on Im[epsilon] for q-point   25 :    101.06  [%]


--------------------------------------------------------------------------------
  q-point number 26        q = (-0.375000, 0.375000, 0.125000) [r.l.u.]
--------------------------------------------------------------------------------
  chi0(G,G') at the    1 th omega   0.0000   0.0000 [eV]
       1       2       3       4       5       6       7       8       9
    1  -7.928  -0.602  -1.148  -1.480  -1.553  -1.410  -1.616  -1.142  -1.088
        0.000  -0.602   1.148  -1.480   1.553  -1.410   1.616  -1.142   1.088

    2  -0.602  -7.603  -0.000  -1.273   0.000  -1.024   0.000  -0.872   0.000
        0.602   0.000  -1.509   0.000  -0.131   0.000  -0.169  -0.000  -0.293

  chi0(G,G') at the    2 th omega   0.0000  31.1801 [eV]
       1       2       3       4       5       6       7       8       9
    1  -2.679  -0.002  -0.508  -0.495  -0.432  -0.453  -0.489  -0.506  -0.152
        0.000  -0.002   0.508  -0.495   0.432  -0.453   0.489  -0.506   0.152

    2  -0.002  -2.305  -0.000  -0.289   0.000  -0.278   0.000  -0.191   0.000
        0.002   0.000  -0.300   0.000  -0.029  -0.000  -0.059  -0.000  -0.026

  Average fulfillment of the sum rule on Im[epsilon] for q-point   26 :    101.04  [%]


--------------------------------------------------------------------------------
  q-point number 27        q = (-0.250000, 0.375000, 0.125000) [r.l.u.]
--------------------------------------------------------------------------------
  chi0(G,G') at the    1 th omega   0.0000   0.0000 [eV]
       1       2       3       4       5       6       7       8       9
    1  -7.163  -0.615  -1.133  -1.429  -1.308  -1.309  -1.429  -1.133  -0.615
        0.000  -0.615   1.133  -1.429   1.308  -1.308   1.429  -1.133   0.615

    2  -0.615  -8.263  -0.000  -1.371   0.000  -1.104   0.000  -1.036   0.000
        0.615   0.000  -1.698  -0.000  -0.290   0.000  -0.336   0.000  -0.583

  chi0(G,G') at the    2 th omega   0.0000  31.1801 [eV]
       1       2       3       4       5       6       7       8       9
    1  -2.106  -0.006  -0.444  -0.403  -0.335  -0.335  -0.403  -0.444  -0.006
        0.000  -0.006   0.444  -0.403   0.335  -0.335   0.403  -0.444   0.006

    2  -0.006  -2.872  -0.000  -0.329   0.000  -0.306   0.000  -0.247   0.000
        0.006   0.000  -0.371  -0.000  -0.063   0.000  -0.089   0.000  -0.063

  Average fulfillment of the sum rule on Im[epsilon] for q-point   27 :    101.05  [%]


--------------------------------------------------------------------------------
  q-point number 28        q = (-0.375000, 0.500000, 0.125000) [r.l.u.]
--------------------------------------------------------------------------------
  chi0(G,G') at the    1 th omega   0.0000   0.0000 [eV]
       1       2       3       4       5       6       7       8       9
    1  -8.411  -1.061  -1.135  -1.630  -1.597  -1.597  -1.630  -1.135  -1.061
        0.000  -1.061   1.135  -1.630   1.597  -1.597   1.630  -1.135   1.061

    2  -1.061  -8.053  -0.000  -1.414   0.000  -1.275  -0.000  -0.601  -0.000
        1.061   0.000  -1.188  -0.000   0.000   0.000  -0.037  -0.000  -0.000

  chi0(G,G') at the    2 th omega   0.0000  31.1801 [eV]
       1       2       3       4       5       6       7       8       9
    1  -3.157  -0.153  -0.552  -0.565  -0.532  -0.532  -0.565  -0.552  -0.153
        0.000  -0.153   0.552  -0.565   0.532  -0.532   0.565  -0.552   0.153

    2  -0.153  -2.543   0.000  -0.322   0.000  -0.317   0.000  -0.149  -0.000
        0.153   0.000  -0.221  -0.000  -0.000   0.000  -0.033  -0.000  -0.000

  Average fulfillment of the sum rule on Im[epsilon] for q-point   28 :    101.04  [%]


--------------------------------------------------------------------------------
  q-point number 29        q = (-0.250000, 0.500000, 0.250000) [r.l.u.]
--------------------------------------------------------------------------------
  chi0(G,G') at the    1 th omega   0.0000   0.0000 [eV]
       1       2       3       4       5       6       7       8       9
    1  -8.303  -1.065  -1.215  -1.566  -1.480  -1.480  -1.566  -1.215  -1.065
        0.000  -1.065   1.215  -1.566   1.480  -1.480   1.566  -1.215   1.065

    2  -1.065  -8.303  -0.000  -1.353  -0.000  -1.039  -0.000  -0.846  -0.000
        1.065   0.000  -1.323  -0.000  -0.000   0.000  -0.132  -0.000   0.000

  chi0(G,G') at the    2 th omega   0.0000  31.1801 [eV]
       1       2       3       4       5       6       7       8       9
    1  -2.798  -0.128  -0.522  -0.523  -0.430  -0.430  -0.523  -0.522  -0.128
        0.000  -0.128   0.522  -0.523   0.430  -0.430   0.523  -0.522   0.128

    2  -0.128  -2.798  -0.000  -0.323  -0.000  -0.300  -0.000  -0.207  -0.000
        0.128   0.000  -0.274  -0.000  -0.000   0.000  -0.062   0.000   0.000

  Average fulfillment of the sum rule on Im[epsilon] for q-point   29 :    101.04  [%]

================================================================================
== DATASET  2 ==================================================================
-   mpi_nproc: 256, omp_nthreads: -1 (-1 if OMP is not activated)


--- !DatasetInfo
iteration_state: {dtset: 2, }
dimensions: {natom: 2, nkpt: 29, mband: 480, nsppol: 1, nspinor: 1, nspden: 1, mpw: 941, }
cutoff_energies: {ecut:  40.0, pawecutdg:  -1.0, }
electrons: {nelect:   8.00000000E+00, charge:   0.00000000E+00, occopt:   1.00000000E+00, tsmear:   1.00000000E-02, }
meta: {optdriver: 4, gwcalctyp: 0, }
...

 mkfilename: getwfk from: ../outdata_gs_DS2_WFK

 mkfilename : getscr/=0, take file _SCR from output of DATASET   1.

 Exchange-correlation functional for the present dataset will be:
  GGA: Perdew-Burke-Ernzerhof functional - ixc=11
 Citation for XC functional:
  J.P.Perdew, K.Burke, M.Ernzerhof, PRL 77, 3865 (1996)

 SIGMA: Calculation of the GW corrections 

 Based on a program developped by R.W. Godby, V. Olevano, G. Onida, and L. Reining.
 Incorporated in ABINIT by V. Olevano, G.-M. Rignanese, and M. Torrent.
.Using single precision arithmetic ; gwpc =  4

 Real(R)+Recip(G) space primitive vectors, cartesian coordinates (Bohr,Bohr^-1):
 R(1)=  0.0000000  3.3703266  3.3703266  G(1)= -0.1483536  0.1483536  0.1483536
 R(2)=  3.3703266  0.0000000  3.3703266  G(2)=  0.1483536 -0.1483536  0.1483536
 R(3)=  3.3703266  3.3703266  0.0000000  G(3)=  0.1483536  0.1483536 -0.1483536
 Unit cell volume ucvol=  7.6567760E+01 bohr^3
 Angles (23,13,12)=  6.00000000E+01  6.00000000E+01  6.00000000E+01 degrees
--------------------------------------------------------------------------------

 ==== K-mesh for the wavefunctions ====
 Number of points in the irreducible wedge :    29
 Reduced coordinates and weights : 

     1)     0.00000000E+00  0.00000000E+00  0.00000000E+00       0.00195
     2)     1.25000000E-01  0.00000000E+00  0.00000000E+00       0.01563
     3)     2.50000000E-01  0.00000000E+00  0.00000000E+00       0.01563
     4)     3.75000000E-01  0.00000000E+00  0.00000000E+00       0.01563
     5)     5.00000000E-01  0.00000000E+00  0.00000000E+00       0.00781
     6)     1.25000000E-01  1.25000000E-01  0.00000000E+00       0.01172
     7)     2.50000000E-01  1.25000000E-01  0.00000000E+00       0.04688
     8)     3.75000000E-01  1.25000000E-01  0.00000000E+00       0.04688
     9)     5.00000000E-01  1.25000000E-01  0.00000000E+00       0.04688
    10)    -3.75000000E-01  1.25000000E-01  0.00000000E+00       0.04688
    11)    -2.50000000E-01  1.25000000E-01  0.00000000E+00       0.04688
    12)    -1.25000000E-01  1.25000000E-01  0.00000000E+00       0.02344
    13)     2.50000000E-01  2.50000000E-01  0.00000000E+00       0.01172
    14)     3.75000000E-01  2.50000000E-01  0.00000000E+00       0.04688
    15)     5.00000000E-01  2.50000000E-01  0.00000000E+00       0.04688
    16)    -3.75000000E-01  2.50000000E-01  0.00000000E+00       0.04688
    17)    -2.50000000E-01  2.50000000E-01  0.00000000E+00       0.02344
    18)     3.75000000E-01  3.75000000E-01  0.00000000E+00       0.01172
    19)     5.00000000E-01  3.75000000E-01  0.00000000E+00       0.04688
    20)    -3.75000000E-01  3.75000000E-01  0.00000000E+00       0.02344
    21)     5.00000000E-01  5.00000000E-01  0.00000000E+00       0.00586
    22)     3.75000000E-01  2.50000000E-01  1.25000000E-01       0.04688
    23)     5.00000000E-01  2.50000000E-01  1.25000000E-01       0.09375
    24)    -3.75000000E-01  2.50000000E-01  1.25000000E-01       0.04688
    25)     5.00000000E-01  3.75000000E-01  1.25000000E-01       0.04688
    26)    -3.75000000E-01  3.75000000E-01  1.25000000E-01       0.09375
    27)    -2.50000000E-01  3.75000000E-01  1.25000000E-01       0.04688
    28)    -3.75000000E-01  5.00000000E-01  1.25000000E-01       0.02344
    29)    -2.50000000E-01  5.00000000E-01  2.50000000E-01       0.01172

 Together with 48 symmetry operations and time-reversal symmetry 
 yields   512 points in the full Brillouin Zone.


 ==== Q-mesh for screening function ====
 Number of points in the irreducible wedge :    29
 Reduced coordinates and weights : 

     1)     0.00000000E+00  0.00000000E+00  0.00000000E+00       0.00195
     2)     1.25000000E-01  0.00000000E+00  0.00000000E+00       0.01563
     3)     2.50000000E-01  0.00000000E+00  0.00000000E+00       0.01563
     4)     3.75000000E-01  0.00000000E+00  0.00000000E+00       0.01563
     5)     5.00000000E-01  0.00000000E+00  0.00000000E+00       0.00781
     6)     1.25000000E-01  1.25000000E-01  0.00000000E+00       0.01172
     7)     2.50000000E-01  1.25000000E-01  0.00000000E+00       0.04688
     8)     3.75000000E-01  1.25000000E-01  0.00000000E+00       0.04688
     9)     5.00000000E-01  1.25000000E-01  0.00000000E+00       0.04688
    10)    -3.75000000E-01  1.25000000E-01  0.00000000E+00       0.04688
    11)    -2.50000000E-01  1.25000000E-01  0.00000000E+00       0.04688
    12)    -1.25000000E-01  1.25000000E-01  0.00000000E+00       0.02344
    13)     2.50000000E-01  2.50000000E-01  0.00000000E+00       0.01172
    14)     3.75000000E-01  2.50000000E-01  0.00000000E+00       0.04688
    15)     5.00000000E-01  2.50000000E-01  0.00000000E+00       0.04688
    16)    -3.75000000E-01  2.50000000E-01  0.00000000E+00       0.04688
    17)    -2.50000000E-01  2.50000000E-01  0.00000000E+00       0.02344
    18)     3.75000000E-01  3.75000000E-01  0.00000000E+00       0.01172
    19)     5.00000000E-01  3.75000000E-01  0.00000000E+00       0.04688
    20)    -3.75000000E-01  3.75000000E-01  0.00000000E+00       0.02344
    21)     5.00000000E-01  5.00000000E-01  0.00000000E+00       0.00586
    22)     3.75000000E-01  2.50000000E-01  1.25000000E-01       0.04688
    23)     5.00000000E-01  2.50000000E-01  1.25000000E-01       0.09375
    24)    -3.75000000E-01  2.50000000E-01  1.25000000E-01       0.04688
    25)     5.00000000E-01  3.75000000E-01  1.25000000E-01       0.04688
    26)    -3.75000000E-01  3.75000000E-01  1.25000000E-01       0.09375
    27)    -2.50000000E-01  3.75000000E-01  1.25000000E-01       0.04688
    28)    -3.75000000E-01  5.00000000E-01  1.25000000E-01       0.02344
    29)    -2.50000000E-01  5.00000000E-01  2.50000000E-01       0.01172

 Together with 48 symmetry operations and time-reversal symmetry 
 yields   512 points in the full Brillouin Zone.


 setmesh: FFT mesh size selected  =    32x   32x   32
          total number of points  =        32768

 Number of electrons calculated from density =    8.0000; Expected =    8.0000
 average of density, n =  0.104483
 r_s =    1.3171
 omega_plasma =   31.1801 [eV]


 === KS Band Gaps ===
  >>>> For spin  1
   Minimum direct gap =   5.6237 [eV], located at k-point      :   0.0000  0.0000  0.0000
   Fundamental gap    =   4.1889 [eV], Top of valence bands at :   0.0000  0.0000  0.0000
                                       Bottom of conduction at :   0.3750  0.3750  0.0000
 SIGMA fundamental parameters:
 PLASMON POLE MODEL  1
 number of plane-waves for SigmaX                  749
 number of plane-waves for SigmaC and W            169
 number of plane-waves for wavefunctions           941
 number of bands                                   480
 number of independent spin polarizations            1
 number of spinorial components                      1
 number of k-points in IBZ                          29
 number of q-points in IBZ                          29
 number of symmetry operations                      48
 number of k-points in BZ                          512
 number of q-points in BZ                          512
 number of frequencies for dSigma/dE                 9
 frequency step for dSigma/dE [eV]                0.25
 number of omega for Sigma on real axis              0
 max omega for Sigma on real axis  [eV]           0.00
 zcut for avoiding poles [eV]                     0.10

 EPSILON^-1 parameters (SCR file):
 dimension of the eps^-1 matrix on file            169
 dimension of the eps^-1 matrix used               169
 number of plane-waves for wavefunctions           941
 number of bands                                   480
 number of q-points in IBZ                          29
 number of frequencies                               2
 number of real frequencies                          1
 number of imag frequencies                          1

 matrix elements of self-energy operator (all in [eV])

 Perturbative Calculation

--- !SelfEnergy_ee
iteration_state: {dtset: 2, }
kpoint     : [   0.000,    0.000,    0.000, ]
spin       : 1
KS_gap     :    5.624
QP_gap     :    7.424
Delta_QP_KS:    1.800
data: !SigmaeeData |
     Band     E0 <VxcDFT>   SigX SigC(E0)      Z dSigC/dE  Sig(E)    E-E0       E
        1 -11.196 -14.866 -25.671   8.396   0.704  -0.421 -16.562  -1.695 -12.892
        2  10.290 -16.962 -19.292   1.240   0.830  -0.204 -17.867  -0.905   9.385
        3  10.290 -16.962 -19.292   1.240   0.830  -0.204 -17.867  -0.905   9.385
        4  10.290 -16.962 -19.292   1.240   0.830  -0.204 -17.867  -0.905   9.385
        5  15.914 -15.642  -9.538  -5.028   0.832  -0.203 -14.747   0.895  16.809
        6  15.914 -15.642  -9.538  -5.028   0.832  -0.203 -14.747   0.895  16.809
        7  15.914 -15.642  -9.538  -5.028   0.832  -0.203 -14.747   0.895  16.809
...


--- !SelfEnergy_ee
iteration_state: {dtset: 2, }
kpoint     : [   0.500,    0.500,    0.000, ]
spin       : 1
KS_gap     :   11.140
QP_gap     :   12.796
Delta_QP_KS:    1.656
data: !SigmaeeData |
     Band     E0 <VxcDFT>   SigX SigC(E0)      Z dSigC/dE  Sig(E)    E-E0       E
        1  -2.485 -15.666 -23.485   5.568   0.779  -0.284 -17.419  -1.754  -4.238
        2  -2.485 -15.666 -23.485   5.568   0.779  -0.284 -17.419  -1.754  -4.238
        3   3.975 -15.915 -20.637   3.163   0.815  -0.227 -17.186  -1.271   2.704
        4   3.975 -15.915 -20.637   3.163   0.815  -0.227 -17.186  -1.271   2.704
        5  15.115 -13.578  -8.066  -5.056   0.843  -0.186 -13.194   0.385  15.500
        6  15.115 -13.579  -8.066  -5.056   0.843  -0.186 -13.194   0.385  15.500
...


== END DATASET(S) ==============================================================
================================================================================
  
 -outvars: echo values of variables after computation  --------
            acell      6.7406531160E+00  6.7406531160E+00  6.7406531160E+00 Bohr
              amu      1.20110000E+01
             bdgw           1       5       1       5
           diemac      1.20000000E+01
             ecut      4.00000000E+01 Hartree
          ecuteps      1.20000000E+01 Hartree
         ecutsigx      3.60000000E+01 Hartree
          ecutwfn      4.00000000E+01 Hartree
           etotal1     0.0000000000E+00
           etotal2     0.0000000000E+00
            fcart1     0.0000000000E+00  0.0000000000E+00  0.0000000000E+00
                       0.0000000000E+00  0.0000000000E+00  0.0000000000E+00
            fcart2     0.0000000000E+00  0.0000000000E+00  0.0000000000E+00
                       0.0000000000E+00  0.0000000000E+00  0.0000000000E+00
-          fftalg         312
           getscr1          0
           getscr2         -1
           istwfk        1    0    0    0    1    0    0    0    0    0
                         0    0    0    0    0    0    0    0    0    0
                         1    0    0    0    0    0    0    0    0
              ixc          11
           jdtset        1    2
              kpt      0.00000000E+00  0.00000000E+00  0.00000000E+00
                       1.25000000E-01  0.00000000E+00  0.00000000E+00
                       2.50000000E-01  0.00000000E+00  0.00000000E+00
                       3.75000000E-01  0.00000000E+00  0.00000000E+00
                       5.00000000E-01  0.00000000E+00  0.00000000E+00
                       1.25000000E-01  1.25000000E-01  0.00000000E+00
                       2.50000000E-01  1.25000000E-01  0.00000000E+00
                       3.75000000E-01  1.25000000E-01  0.00000000E+00
                       5.00000000E-01  1.25000000E-01  0.00000000E+00
                      -3.75000000E-01  1.25000000E-01  0.00000000E+00
                      -2.50000000E-01  1.25000000E-01  0.00000000E+00
                      -1.25000000E-01  1.25000000E-01  0.00000000E+00
                       2.50000000E-01  2.50000000E-01  0.00000000E+00
                       3.75000000E-01  2.50000000E-01  0.00000000E+00
                       5.00000000E-01  2.50000000E-01  0.00000000E+00
                      -3.75000000E-01  2.50000000E-01  0.00000000E+00
                      -2.50000000E-01  2.50000000E-01  0.00000000E+00
                       3.75000000E-01  3.75000000E-01  0.00000000E+00
                       5.00000000E-01  3.75000000E-01  0.00000000E+00
                      -3.75000000E-01  3.75000000E-01  0.00000000E+00
                       5.00000000E-01  5.00000000E-01  0.00000000E+00
                       3.75000000E-01  2.50000000E-01  1.25000000E-01
                       5.00000000E-01  2.50000000E-01  1.25000000E-01
                      -3.75000000E-01  2.50000000E-01  1.25000000E-01
                       5.00000000E-01  3.75000000E-01  1.25000000E-01
                      -3.75000000E-01  3.75000000E-01  1.25000000E-01
                      -2.50000000E-01  3.75000000E-01  1.25000000E-01
                      -3.75000000E-01  5.00000000E-01  1.25000000E-01
                      -2.50000000E-01  5.00000000E-01  2.50000000E-01
            kptgw      0.00000000E+00  0.00000000E+00  0.00000000E+00
                       5.00000000E-01  5.00000000E-01  0.00000000E+00
         kptrlatt        8    0    0      0    8    0      0    0    8
          kptrlen      3.81308922E+01
P           mkmem           1
            natom           2
            nband         480
           ndtset           2
            ngfft          30      30      30
             nkpt          29
           nkptgw           2
           npweps         169
          npwsigx         749
           npwwfn         941
            nstep          50
             nsym          48
           ntypat           1
              occ      2.000000  2.000000  2.000000  2.000000  0.000000  0.000000
                       0.000000  0.000000  0.000000  0.000000  0.000000  0.000000
                       0.000000  0.000000  0.000000  0.000000  0.000000  0.000000
                       0.000000  0.000000  0.000000  0.000000  0.000000  0.000000
                       0.000000  0.000000  0.000000  0.000000  0.000000  0.000000
                       0.000000  0.000000  0.000000  0.000000  0.000000  0.000000
                       0.000000  0.000000  0.000000  0.000000  0.000000  0.000000
                       0.000000  0.000000  0.000000  0.000000  0.000000  0.000000
                       0.000000  0.000000  0.000000  0.000000  0.000000  0.000000
                       0.000000  0.000000  0.000000  0.000000  0.000000  0.000000
                       0.000000  0.000000  0.000000  0.000000  0.000000  0.000000
                       0.000000  0.000000  0.000000  0.000000  0.000000  0.000000
                       0.000000  0.000000  0.000000  0.000000  0.000000  0.000000
                       0.000000  0.000000  0.000000  0.000000  0.000000  0.000000
                       0.000000  0.000000  0.000000  0.000000  0.000000  0.000000
                       0.000000  0.000000  0.000000  0.000000  0.000000  0.000000
                       0.000000  0.000000  0.000000  0.000000  0.000000  0.000000
                       0.000000  0.000000  0.000000  0.000000  0.000000  0.000000
                       0.000000  0.000000  0.000000  0.000000  0.000000  0.000000
                       0.000000  0.000000  0.000000  0.000000  0.000000  0.000000
                       0.000000  0.000000  0.000000  0.000000  0.000000  0.000000
                       0.000000  0.000000  0.000000  0.000000  0.000000  0.000000
                       0.000000  0.000000  0.000000  0.000000  0.000000  0.000000
                       0.000000  0.000000  0.000000  0.000000  0.000000  0.000000
                       0.000000  0.000000  0.000000  0.000000  0.000000  0.000000
                       0.000000  0.000000  0.000000  0.000000  0.000000  0.000000
                       0.000000  0.000000  0.000000  0.000000  0.000000  0.000000
                       0.000000  0.000000  0.000000  0.000000  0.000000  0.000000
[...]
                       0.0000000  0.0000000  0.0000000     0.2500000  0.2500000  0.2500000
                       0.0000000  0.0000000  0.0000000     0.2500000  0.2500000  0.2500000
                       0.0000000  0.0000000  0.0000000     0.2500000  0.2500000  0.2500000
                       0.0000000  0.0000000  0.0000000     0.2500000  0.2500000  0.2500000
                       0.0000000  0.0000000  0.0000000     0.2500000  0.2500000  0.2500000
                       0.0000000  0.0000000  0.0000000     0.2500000  0.2500000  0.2500000
                       0.0000000  0.0000000  0.0000000     0.2500000  0.2500000  0.2500000
                       0.0000000  0.0000000  0.0000000     0.2500000  0.2500000  0.2500000
                       0.0000000  0.0000000  0.0000000     0.2500000  0.2500000  0.2500000
                       0.0000000  0.0000000  0.0000000     0.2500000  0.2500000  0.2500000
                       0.0000000  0.0000000  0.0000000     0.2500000  0.2500000  0.2500000
                       0.0000000  0.0000000  0.0000000     0.2500000  0.2500000  0.2500000
                       0.0000000  0.0000000  0.0000000     0.2500000  0.2500000  0.2500000
                       0.0000000  0.0000000  0.0000000     0.2500000  0.2500000  0.2500000
                       0.0000000  0.0000000  0.0000000     0.2500000  0.2500000  0.2500000
                       0.0000000  0.0000000  0.0000000     0.2500000  0.2500000  0.2500000
                       0.0000000  0.0000000  0.0000000     0.2500000  0.2500000  0.2500000
                       0.0000000  0.0000000  0.0000000     0.2500000  0.2500000  0.2500000
                       0.0000000  0.0000000  0.0000000     0.2500000  0.2500000  0.2500000
                       0.0000000  0.0000000  0.0000000     0.2500000  0.2500000  0.2500000
            typat      1  1
              wtk        0.00195    0.01563    0.01563    0.01563    0.00781    0.01172
                         0.04688    0.04688    0.04688    0.04688    0.04688    0.02344
                         0.01172    0.04688    0.04688    0.04688    0.02344    0.01172
                         0.04688    0.02344    0.00586    0.04688    0.09375    0.04688
                         0.04688    0.09375    0.04688    0.02344    0.01172
           xangst      0.0000000000E+00  0.0000000000E+00  0.0000000000E+00
                       8.9175000000E-01  8.9175000000E-01  8.9175000000E-01
            xcart      0.0000000000E+00  0.0000000000E+00  0.0000000000E+00
                       1.6851632790E+00  1.6851632790E+00  1.6851632790E+00
             xred      0.0000000000E+00  0.0000000000E+00  0.0000000000E+00
                       2.5000000000E-01  2.5000000000E-01  2.5000000000E-01
            znucl        6.00000

================================================================================

 Test the timer : 
  a combined call timab(*,1,tsec) + timab(*,2,tsec) is 
- CPU time =    6.2327E-07 sec,    Wall time =    6.2337E-07 sec

- Total cpu        time (s,m,h):      10851.6      180.86      3.014
- Total wall clock time (s,m,h):      10928.4      182.14      3.036
-
- For major independent code sections, cpu and wall times (sec),
-  as well as % of the time and number of calls for node 0
-
-<BEGIN_TIMER mpi_nprocs = 256, omp_nthreads = 1, mpi_rank = 0>
- cpu_time =           42.1, wall_time =           42.7
-
- routine                            cpu     %          wall     %      number of calls Gflops    Speedup Efficacity
-                                                                        (-1=no count)
- sigma/=fourdp                     4.223   0.0         4.392   0.0              1      -1.00        0.96       0.96
- wfd_read_wfk                      1.025   0.0         1.038   0.0              2      -1.00        0.99       0.99
- pspini                            0.260   0.0         0.260   0.0              2      -1.00        1.00       1.00
- abinit(2)                         0.156   0.0         0.162   0.0              1      -1.00        0.96       0.96
- timing timab                      0.121   0.0         0.121   0.0             14      -1.00        1.00       1.00
- invars2                           0.049   0.0         0.049   0.0              2      -1.00        1.00       1.00
- ewald                             0.020   0.0         0.021   0.0              2      -1.00        1.00       1.00
- xc:pot/=fourdp                    0.017   0.0         0.017   0.0              3      -1.00        1.00       1.00
- fourdp                            0.016   0.0         0.045   0.0             34      -1.00        0.36       0.36
- mkcore                            0.014   0.0         0.014   0.0              2      -1.00        1.00       1.00
- others (145)                      0.007   0.0         0.007   0.0             -1      -1.00        1.01       1.01
-<END_TIMER>
-
- subtotal                          5.909   0.1         6.126   0.1                                  0.96       0.96

- For major independent code sections, cpu and wall times (sec),
- as well as % of the total time and number of calls 

-<BEGIN_TIMER mpi_nprocs = 256, omp_nthreads = 1, mpi_rank = world>
- cpu_time =       10851.6, wall_time =       10928.4
-
- routine                            cpu     %          wall     %      number of calls Gflops    Speedup Efficacity
-                                                                        (-1=no count)
- sigma/=fourdp                  1055.973   9.7      1087.546  10.0            256      -1.00        0.97       0.97
- wfd_read_wfk                    265.422   2.4       265.596   2.4            512      -1.00        1.00       1.00
- pspini                           66.013   0.6        66.309   0.6            512      -1.00        1.00       1.00
- timing timab                     30.057   0.3        30.060   0.3           3584      -1.00        1.00       1.00
- abinit(2)                        16.055   0.1        16.384   0.1            256      -1.00        0.98       0.98
- invars2                          12.209   0.1        12.212   0.1            512      -1.00        1.00       1.00
- fourdp                            5.191   0.0        11.738   0.1           8704      -1.00        0.44       0.44
- ewald                             5.068   0.0         5.071   0.0            512      -1.00        1.00       1.00
- xc:pot/=fourdp                    4.342   0.0         4.364   0.0            768      -1.00        0.99       0.99
- mkcore                            3.429   0.0         3.430   0.0            512      -1.00        1.00       1.00
- mkffnl                            0.677   0.0         0.668   0.0           7424      -1.00        1.01       1.01
- kpgsph                            0.631   0.0         0.628   0.0          76346      -1.00        1.00       1.00
- symrhg(no FFT)                    0.325   0.0         0.325   0.0            512      -1.00        1.00       1.00
- others (142)                      0.000   0.0         0.000   0.0             -1      -1.00        0.00       0.00
-<END_TIMER>

- subtotal                       1465.392  13.5      1504.331  13.8                                  0.97       0.97

 Partitioning of abinit
- abinit                        10851.614 100.0     10928.432 100.0            256                   0.99       0.99
 
- abinit(1)                        51.303   0.5        58.771   0.5            256                   0.87       0.87
- abinit(2)                        16.055   0.1        16.384   0.1            256                   0.98       0.98
- indefo+macroin+invars2m          12.571   0.1        12.575   0.1            256                   1.00       1.00
- abinit(4)                        62.139   0.6        66.034   0.6            256                   0.94       0.94
- abinit(5)                        25.282   0.2        25.353   0.2            256                   1.00       1.00
- driver                        10712.833  98.7     10779.226  98.6            256                   0.99       0.99
- timing timab                     30.057   0.3        30.060   0.3           3584                   1.00       1.00

- subtotal                      10851.614 100.0     10928.432 100.0                                  0.99       0.99

 Partitioning of driver
- driver                        10712.833  98.7     10779.226  98.6            256                   0.99       0.99
 
- driver(bef. select case)          8.593   0.1        21.622   0.2            512                   0.40       0.40
- screening                      9610.848  88.6      9632.559  88.1            256                   1.00       1.00
- sigma                          1056.059   9.7      1087.632  10.0            256                   0.97       0.97
- (other)                          36.726   0.3        36.771   0.3             -1                   1.00       1.00

- subtotal                      10712.833  98.7     10779.226  98.6                                  0.99       0.99

 Partitioning of screening
- screening                      9610.848  88.6      9632.559  88.1            256                   1.00       1.00
 
- screening(init1)                315.201   2.9       316.113   2.9            256                   1.00       1.00
- screening(wfs)                  197.300   1.8       197.544   1.8            256                   1.00       1.00
- screening(1)                     13.206   0.1        13.212   0.1            256                   1.00       1.00
- screening(density)               49.952   0.5        60.887   0.6            256                   0.82       0.82
- screening(2)                      7.566   0.1         7.613   0.1            256                   0.99       0.99
- screening(cchi0q0)              108.519   1.0       116.158   1.1            256                   0.93       0.93
- screening(cchi0)               8860.994  81.7      8862.657  81.1           7168                   1.00       1.00
- screening(q-loop,end)            56.983   0.5        57.250   0.5           7424                   1.00       1.00

- subtotal                       9609.829  88.6      9631.545  88.1                                  1.00       1.00

 Partitioning of sigma
- sigma                          1056.059   9.7      1087.632  10.0            256                   0.97       0.97
 
- sigma(Init1)                     13.085   0.1        13.089   0.1            512                   1.00       1.00
- setup_sigma                     121.512   1.1       121.906   1.1            256                   1.00       1.00
- sigma(rdkss)                     83.215   0.8        83.235   0.8            256                   1.00       1.00
- sigma(Init2)                      4.955   0.0         4.958   0.0            256                   1.00       1.00
- sigma(make_vhxc)                 26.835   0.2        26.838   0.2            256                   1.00       1.00
- sigma(vHxc_me)                    5.372   0.0         5.515   0.1            256                   0.97       0.97
- sigma(hqp_init)                  47.437   0.4        47.453   0.4            256                   1.00       1.00
- sigma(getW)                      16.273   0.1        40.223   0.4            256                   0.40       0.40
- sigma(calc_sigx_me)             155.554   1.4       155.585   1.4            256                   1.00       1.00
- sigma(calc_sigc_me)             569.234   5.2       569.463   5.2            512                   1.00       1.00
- sigma(solve_dyson)                4.311   0.0        10.875   0.1            256                   0.40       0.40

- subtotal                       1047.783   9.7      1079.139   9.9                                  0.97       0.97

 Partitioning of calc_sigc_me
- calc_sigc_me                    569.233   5.2       569.463   5.2            512                   1.00       1.00
 
- calc_sigc_me(Init)               49.623   0.5        49.664   0.5            512                   1.00       1.00
- calc_sigc_me(Init q)              2.335   0.0         2.347   0.0          22528                   0.99       0.99
- calc_sigc_me(loop)              472.301   4.4       472.348   4.3          22528                   1.00       1.00
- calc_sigc_me(xmpi_sum)           44.046   0.4        44.120   0.4            512                   1.00       1.00

- subtotal                        569.131   5.2       569.376   5.2                                  1.00       1.00

 Partitioning of  fourdp (upwards partitioning)
- fourdp                            5.191   0.0        11.738   0.1           8704                   0.44       0.44
 
- fourdp%(other)                    5.033   0.0        11.579   0.1           8192                   0.43       0.43

- subtotal                          5.191   0.0        11.738   0.1                                  0.44       0.44
-
-Synchronisation (=leave_test) and MPI calls 
- communic.MPI                      2.008   0.0         2.051   0.0            256                   0.98       0.98
-
- subtotal                          0.000   0.0         0.000   0.0                                  0.00       0.00

 Additional information
- timana(1)                         0.238   0.0         0.244   0.0            256                   0.97       0.97
- total timab                      30.554   0.3        30.557   0.3       50636538                   1.00       1.00
- xc:fourdp                         1.955   0.0         1.951   0.0           6144                   1.00       1.00
- calc_sigc_me(1)             1818604.954******  32507090.558******          42240                   0.06       0.06
- calc_sigc_me(rho_tw_g)           48.387   0.4        48.413   0.4          42240                   1.00       1.00
- calc_sigc_me(2)                 420.867   3.9       420.996   3.9         267360                   1.00       1.00
- calc_sigc_me(sigma_me)            0.318   0.0         0.320   0.0         267360                   0.99       0.99
- cchi0                          8860.765  81.7      8862.461  81.1           7168                   1.00       1.00

 timana : in multi dataset mode, the more detailed analysis is not done.

================================================================================

 Suggested references for the acknowledgment of ABINIT usage.

 The users of ABINIT have little formal obligations with respect to the ABINIT group
 (those specified in the GNU General Public License, http://www.gnu.org/copyleft/gpl.txt).
 However, it is common practice in the scientific literature,
 to acknowledge the efforts of people that have made the research possible.
 In this spirit, please find below suggested citations of work written by ABINIT developers,
 corresponding to implementations inside of ABINIT that you have used in the present run.
 Note also that it will be of great value to readers of publications presenting these results,
 to read papers enabling them to understand the theoretical formalism and details
 of the ABINIT implementation.
 For information on why they are suggested, see also https://docs.abinit.org/theory/acknowledgments.
-
- [1] The Abinit project: Impact, environment and recent developments.
- Computer Phys. Comm. 248, 107042 (2020).
- X.Gonze, B. Amadon, G. Antonius, F.Arnardi, L.Baguet, J.-M.Beuken,
- J.Bieder, F.Bottin, J.Bouchet, E.Bousquet, N.Brouwer, F.Bruneval,
- G.Brunin, T.Cavignac, J.-B. Charraud, Wei Chen, M.Cote, S.Cottenier,
- J.Denier, G.Geneste, Ph.Ghosez, M.Giantomassi, Y.Gillet, O.Gingras,
- D.R.Hamann, G.Hautier, Xu He, N.Helbig, N.Holzwarth, Y.Jia, F.Jollet,
- W.Lafargue-Dit-Hauret, K.Lejaeghere, M.A.L.Marques, A.Martin, C.Martins,
- H.P.C. Miranda, F.Naccarato, K. Persson, G.Petretto, V.Planes, Y.Pouillon,
- S.Prokhorenko, F.Ricci, G.-M.Rignanese, A.H.Romero, M.M.Schmitt, M.Torrent,
- M.J.van Setten, B.Van Troeye, M.J.Verstraete, G.Zerah and J.W.Zwanzig
- Comment: the fifth generic paper describing the ABINIT project.
- Note that a version of this paper, that is not formatted for Computer Phys. Comm. 
- is available at https://www.abinit.org/sites/default/files/ABINIT20.pdf .
- The licence allows the authors to put it on the Web.
- DOI and bibtex: see https://docs.abinit.org/theory/bibliography/#gonze2020
-
- [2] Optimized norm-conserving Vanderbilt pseudopotentials.
- D.R. Hamann, Phys. Rev. B 88, 085117 (2013).
- Comment: Some pseudopotential generated using the ONCVPSP code were used.
- DOI and bibtex: see https://docs.abinit.org/theory/bibliography/#hamann2013
-
- [3] ABINIT: Overview, and focus on selected capabilities
- J. Chem. Phys. 152, 124102 (2020).
- A. Romero, D.C. Allan, B. Amadon, G. Antonius, T. Applencourt, L.Baguet,
- J.Bieder, F.Bottin, J.Bouchet, E.Bousquet, F.Bruneval,
- G.Brunin, D.Caliste, M.Cote,
- J.Denier, C. Dreyer, Ph.Ghosez, M.Giantomassi, Y.Gillet, O.Gingras,
- D.R.Hamann, G.Hautier, F.Jollet, G. Jomard,
- A.Martin, 
- H.P.C. Miranda, F.Naccarato, G.Petretto, N.A. Pike, V.Planes,
- S.Prokhorenko, T. Rangel, F.Ricci, G.-M.Rignanese, M.Royo, M.Stengel, M.Torrent,
- M.J.van Setten, B.Van Troeye, M.J.Verstraete, J.Wiktor, J.W.Zwanziger, and X.Gonze.
- Comment: a global overview of ABINIT, with focus on selected capabilities .
- Note that a version of this paper, that is not formatted for J. Chem. Phys 
- is available at https://www.abinit.org/sites/default/files/ABINIT20_JPC.pdf .
- The licence allows the authors to put it on the Web.
- DOI and bibtex: see https://docs.abinit.org/theory/bibliography/#romero2020
-
- [4] Recent developments in the ABINIT software package.
- Computer Phys. Comm. 205, 106 (2016).
- X.Gonze, F.Jollet, F.Abreu Araujo, D.Adams, B.Amadon, T.Applencourt,
- C.Audouze, J.-M.Beuken, J.Bieder, A.Bokhanchuk, E.Bousquet, F.Bruneval
- D.Caliste, M.Cote, F.Dahm, F.Da Pieve, M.Delaveau, M.Di Gennaro,
- B.Dorado, C.Espejo, G.Geneste, L.Genovese, A.Gerossier, M.Giantomassi,
- Y.Gillet, D.R.Hamann, L.He, G.Jomard, J.Laflamme Janssen, S.Le Roux,
- A.Levitt, A.Lherbier, F.Liu, I.Lukacevic, A.Martin, C.Martins,
- M.J.T.Oliveira, S.Ponce, Y.Pouillon, T.Rangel, G.-M.Rignanese,
- A.H.Romero, B.Rousseau, O.Rubel, A.A.Shukri, M.Stankovski, M.Torrent,
- M.J.Van Setten, B.Van Troeye, M.J.Verstraete, D.Waroquier, J.Wiktor,
- B.Xu, A.Zhou, J.W.Zwanziger.
- Comment: the fourth generic paper describing the ABINIT project.
- Note that a version of this paper, that is not formatted for Computer Phys. Comm. 
- is available at https://www.abinit.org/sites/default/files/ABINIT16.pdf .
- The licence allows the authors to put it on the Web.
- DOI and bibtex: see https://docs.abinit.org/theory/bibliography/#gonze2016
-
- And optionally:
-
- [5] ABINIT: First-principles approach of materials and nanosystem properties.
- Computer Phys. Comm. 180, 2582-2615 (2009).
- X. Gonze, B. Amadon, P.-M. Anglade, J.-M. Beuken, F. Bottin, P. Boulanger, F. Bruneval,
- D. Caliste, R. Caracas, M. Cote, T. Deutsch, L. Genovese, Ph. Ghosez, M. Giantomassi
- S. Goedecker, D.R. Hamann, P. Hermet, F. Jollet, G. Jomard, S. Leroux, M. Mancini, S. Mazevet,
- M.J.T. Oliveira, G. Onida, Y. Pouillon, T. Rangel, G.-M. Rignanese, D. Sangalli, R. Shaltaf,
- M. Torrent, M.J. Verstraete, G. Zerah, J.W. Zwanziger
- Comment: the third generic paper describing the ABINIT project.
- Note that a version of this paper, that is not formatted for Computer Phys. Comm. 
- is available at https://www.abinit.org/sites/default/files/ABINIT_CPC_v10.pdf .
- The licence allows the authors to put it on the Web.
- DOI and bibtex: see https://docs.abinit.org/theory/bibliography/#gonze2009
-
- Proc.   0 individual time (sec): cpu=         42.1  wall=         42.7

================================================================================

 Calculation completed.
.Delivered   0 WARNINGs and   2 COMMENTs to log file.
+Overall time at end (sec) : cpu=      10863.3  wall=      10940.1
