
.Version 9.9.2 of ABINIT 
.(MPI version, prepared for a x86_64_linux_gnu11.2 computer) 

.Copyright (C) 1998-2022 ABINIT group . 
 ABINIT comes with ABSOLUTELY NO WARRANTY.
 It is free software, and you are welcome to redistribute it
 under certain conditions (GNU General Public License,
 see ~abinit/COPYING or http://www.gnu.org/copyleft/gpl.txt).

 ABINIT is a project of the Universite Catholique de Louvain,
 Corning Inc. and other collaborators, see ~abinit/doc/developers/contributors.txt .
 Please read https://docs.abinit.org/theory/acknowledgments for suggested
 acknowledgments of the ABINIT effort.
 For more information, see https://www.abinit.org .

.Starting date : Fri 17 Feb 2023.
- ( at 17h54 )
  
- input  file    -> run.abi
- output file    -> run.abo
- root for input  files -> ../indata_gs
- root for output files -> outdata_gwr


 DATASET    1 : space group F-4 3 m (#216); Bravais cF (face-center cubic)
================================================================================
 Values of the parameters that define the memory need for DATASET  1.
     intxc =       0    ionmov =       0      iscf =       7    lmnmax =       6
     lnmax =       6     mgfft =      48  mpssoang =       3    mqgrid =    3001
     natom =       2  nloc_mem =       1    nspden =       1   nspinor =       1
    nsppol =       1      nsym =      24    n1xccc =    2501    ntypat =       2
    occopt =       1   xclevel =       2
-    mband =         480        mffmem =           1         mkmem =           1
       mpw =        4405          nfft =      110592          nkpt =          29
================================================================================
P This job should need less than                      76.069 Mbytes of memory.
  Rough estimation (10% accuracy) of disk space for files :
_ WF disk file :    935.634 Mbytes ; DEN or POT disk file :      0.846 Mbytes.
================================================================================


 DATASET    2 : space group F-4 3 m (#216); Bravais cF (face-center cubic)
================================================================================
 Values of the parameters that define the memory need for DATASET  2.
     intxc =       0    ionmov =       0      iscf =       7    lmnmax =       6
     lnmax =       6     mgfft =      48  mpssoang =       3    mqgrid =    3001
     natom =       2  nloc_mem =       1    nspden =       1   nspinor =       1
    nsppol =       1      nsym =      24    n1xccc =    2501    ntypat =       2
    occopt =       1   xclevel =       2
-    mband =         480        mffmem =           1         mkmem =           1
       mpw =        4405          nfft =      110592          nkpt =          29
================================================================================
P This job should need less than                      76.069 Mbytes of memory.
  Rough estimation (10% accuracy) of disk space for files :
_ WF disk file :    935.634 Mbytes ; DEN or POT disk file :      0.846 Mbytes.
================================================================================


 DATASET    3 : space group F-4 3 m (#216); Bravais cF (face-center cubic)
================================================================================
 Values of the parameters that define the memory need for DATASET  3.
     intxc =       0    ionmov =       0      iscf =       7    lmnmax =       6
     lnmax =       6     mgfft =      48  mpssoang =       3    mqgrid =    3001
     natom =       2  nloc_mem =       1    nspden =       1   nspinor =       1
    nsppol =       1      nsym =      24    n1xccc =    2501    ntypat =       2
    occopt =       1   xclevel =       2
-    mband =         480        mffmem =           1         mkmem =           1
       mpw =        4405          nfft =      110592          nkpt =          29
================================================================================
P This job should need less than                      76.069 Mbytes of memory.
  Rough estimation (10% accuracy) of disk space for files :
_ WF disk file :    935.634 Mbytes ; DEN or POT disk file :      0.846 Mbytes.
================================================================================


 DATASET    4 : space group F-4 3 m (#216); Bravais cF (face-center cubic)
================================================================================
 Values of the parameters that define the memory need for DATASET  4.
     intxc =       0    ionmov =       0      iscf =       7    lmnmax =       6
     lnmax =       6     mgfft =      48  mpssoang =       3    mqgrid =    3001
     natom =       2  nloc_mem =       1    nspden =       1   nspinor =       1
    nsppol =       1      nsym =      24    n1xccc =    2501    ntypat =       2
    occopt =       1   xclevel =       2
-    mband =         480        mffmem =           1         mkmem =           1
       mpw =        4405          nfft =      110592          nkpt =          29
================================================================================
P This job should need less than                      76.069 Mbytes of memory.
  Rough estimation (10% accuracy) of disk space for files :
_ WF disk file :    935.634 Mbytes ; DEN or POT disk file :      0.846 Mbytes.
================================================================================


 DATASET    5 : space group F-4 3 m (#216); Bravais cF (face-center cubic)
================================================================================
 Values of the parameters that define the memory need for DATASET  5.
     intxc =       0    ionmov =       0      iscf =       7    lmnmax =       6
     lnmax =       6     mgfft =      48  mpssoang =       3    mqgrid =    3001
     natom =       2  nloc_mem =       1    nspden =       1   nspinor =       1
    nsppol =       1      nsym =      24    n1xccc =    2501    ntypat =       2
    occopt =       1   xclevel =       2
-    mband =         480        mffmem =           1         mkmem =           1
       mpw =        4405          nfft =      110592          nkpt =          29
================================================================================
P This job should need less than                      76.069 Mbytes of memory.
  Rough estimation (10% accuracy) of disk space for files :
_ WF disk file :    935.634 Mbytes ; DEN or POT disk file :      0.846 Mbytes.
================================================================================


 DATASET    6 : space group F-4 3 m (#216); Bravais cF (face-center cubic)
================================================================================
 Values of the parameters that define the memory need for DATASET  6.
     intxc =       0    ionmov =       0      iscf =       7    lmnmax =       6
     lnmax =       6     mgfft =      48  mpssoang =       3    mqgrid =    3001
     natom =       2  nloc_mem =       1    nspden =       1   nspinor =       1
    nsppol =       1      nsym =      24    n1xccc =    2501    ntypat =       2
    occopt =       1   xclevel =       2
-    mband =         480        mffmem =           1         mkmem =           1
       mpw =        4405          nfft =      110592          nkpt =          29
================================================================================
P This job should need less than                      76.069 Mbytes of memory.
  Rough estimation (10% accuracy) of disk space for files :
_ WF disk file :    935.634 Mbytes ; DEN or POT disk file :      0.846 Mbytes.
================================================================================


 DATASET    7 : space group F-4 3 m (#216); Bravais cF (face-center cubic)
================================================================================
 Values of the parameters that define the memory need for DATASET  7.
     intxc =       0    ionmov =       0      iscf =       7    lmnmax =       6
     lnmax =       6     mgfft =      48  mpssoang =       3    mqgrid =    3001
     natom =       2  nloc_mem =       1    nspden =       1   nspinor =       1
    nsppol =       1      nsym =      24    n1xccc =    2501    ntypat =       2
    occopt =       1   xclevel =       2
-    mband =         480        mffmem =           1         mkmem =           1
       mpw =        4405          nfft =      110592          nkpt =          29
================================================================================
P This job should need less than                      76.069 Mbytes of memory.
  Rough estimation (10% accuracy) of disk space for files :
_ WF disk file :    935.634 Mbytes ; DEN or POT disk file :      0.846 Mbytes.
================================================================================


 DATASET    8 : space group F-4 3 m (#216); Bravais cF (face-center cubic)
================================================================================
 Values of the parameters that define the memory need for DATASET  8.
     intxc =       0    ionmov =       0      iscf =       7    lmnmax =       6
     lnmax =       6     mgfft =      48  mpssoang =       3    mqgrid =    3001
     natom =       2  nloc_mem =       1    nspden =       1   nspinor =       1
    nsppol =       1      nsym =      24    n1xccc =    2501    ntypat =       2
    occopt =       1   xclevel =       2
-    mband =         480        mffmem =           1         mkmem =           1
       mpw =        4405          nfft =      110592          nkpt =          29
================================================================================
P This job should need less than                      76.069 Mbytes of memory.
  Rough estimation (10% accuracy) of disk space for files :
_ WF disk file :    935.634 Mbytes ; DEN or POT disk file :      0.846 Mbytes.
================================================================================


 DATASET    9 : space group F-4 3 m (#216); Bravais cF (face-center cubic)
================================================================================
 Values of the parameters that define the memory need for DATASET  9.
     intxc =       0    ionmov =       0      iscf =       7    lmnmax =       6
     lnmax =       6     mgfft =      48  mpssoang =       3    mqgrid =    3001
     natom =       2  nloc_mem =       1    nspden =       1   nspinor =       1
    nsppol =       1      nsym =      24    n1xccc =    2501    ntypat =       2
    occopt =       1   xclevel =       2
-    mband =         480        mffmem =           1         mkmem =           1
       mpw =        4405          nfft =      110592          nkpt =          29
================================================================================
P This job should need less than                      76.069 Mbytes of memory.
  Rough estimation (10% accuracy) of disk space for files :
_ WF disk file :    935.634 Mbytes ; DEN or POT disk file :      0.846 Mbytes.
================================================================================


 DATASET   10 : space group F-4 3 m (#216); Bravais cF (face-center cubic)
================================================================================
 Values of the parameters that define the memory need for DATASET 10.
     intxc =       0    ionmov =       0      iscf =       7    lmnmax =       6
     lnmax =       6     mgfft =      48  mpssoang =       3    mqgrid =    3001
     natom =       2  nloc_mem =       1    nspden =       1   nspinor =       1
    nsppol =       1      nsym =      24    n1xccc =    2501    ntypat =       2
    occopt =       1   xclevel =       2
-    mband =         480        mffmem =           1         mkmem =           1
       mpw =        4405          nfft =      110592          nkpt =          29
================================================================================
P This job should need less than                      76.069 Mbytes of memory.
  Rough estimation (10% accuracy) of disk space for files :
_ WF disk file :    935.634 Mbytes ; DEN or POT disk file :      0.846 Mbytes.
================================================================================


 DATASET   11 : space group F-4 3 m (#216); Bravais cF (face-center cubic)
================================================================================
 Values of the parameters that define the memory need for DATASET 11.
     intxc =       0    ionmov =       0      iscf =       7    lmnmax =       6
     lnmax =       6     mgfft =      48  mpssoang =       3    mqgrid =    3001
     natom =       2  nloc_mem =       1    nspden =       1   nspinor =       1
    nsppol =       1      nsym =      24    n1xccc =    2501    ntypat =       2
    occopt =       1   xclevel =       2
-    mband =         480        mffmem =           1         mkmem =           1
       mpw =        4405          nfft =      110592          nkpt =          29
================================================================================
P This job should need less than                      76.069 Mbytes of memory.
  Rough estimation (10% accuracy) of disk space for files :
_ WF disk file :    935.634 Mbytes ; DEN or POT disk file :      0.846 Mbytes.
================================================================================


 DATASET   12 : space group F-4 3 m (#216); Bravais cF (face-center cubic)
================================================================================
 Values of the parameters that define the memory need for DATASET 12.
     intxc =       0    ionmov =       0      iscf =       7    lmnmax =       6
     lnmax =       6     mgfft =      48  mpssoang =       3    mqgrid =    3001
     natom =       2  nloc_mem =       1    nspden =       1   nspinor =       1
    nsppol =       1      nsym =      24    n1xccc =    2501    ntypat =       2
    occopt =       1   xclevel =       2
-    mband =         480        mffmem =           1         mkmem =           1
       mpw =        4405          nfft =      110592          nkpt =          29
================================================================================
P This job should need less than                      76.069 Mbytes of memory.
  Rough estimation (10% accuracy) of disk space for files :
_ WF disk file :    935.634 Mbytes ; DEN or POT disk file :      0.846 Mbytes.
================================================================================


 DATASET   13 : space group F-4 3 m (#216); Bravais cF (face-center cubic)
================================================================================
 Values of the parameters that define the memory need for DATASET 13.
     intxc =       0    ionmov =       0      iscf =       7    lmnmax =       6
     lnmax =       6     mgfft =      48  mpssoang =       3    mqgrid =    3001
     natom =       2  nloc_mem =       1    nspden =       1   nspinor =       1
    nsppol =       1      nsym =      24    n1xccc =    2501    ntypat =       2
    occopt =       1   xclevel =       2
-    mband =         480        mffmem =           1         mkmem =           1
       mpw =        4405          nfft =      110592          nkpt =          29
================================================================================
P This job should need less than                      76.069 Mbytes of memory.
  Rough estimation (10% accuracy) of disk space for files :
_ WF disk file :    935.634 Mbytes ; DEN or POT disk file :      0.846 Mbytes.
================================================================================


 DATASET   14 : space group F-4 3 m (#216); Bravais cF (face-center cubic)
================================================================================
 Values of the parameters that define the memory need for DATASET 14.
     intxc =       0    ionmov =       0      iscf =       7    lmnmax =       6
     lnmax =       6     mgfft =      48  mpssoang =       3    mqgrid =    3001
     natom =       2  nloc_mem =       1    nspden =       1   nspinor =       1
    nsppol =       1      nsym =      24    n1xccc =    2501    ntypat =       2
    occopt =       1   xclevel =       2
-    mband =         480        mffmem =           1         mkmem =           1
       mpw =        4405          nfft =      110592          nkpt =          29
================================================================================
P This job should need less than                      76.069 Mbytes of memory.
  Rough estimation (10% accuracy) of disk space for files :
_ WF disk file :    935.634 Mbytes ; DEN or POT disk file :      0.846 Mbytes.
================================================================================


 DATASET   15 : space group F-4 3 m (#216); Bravais cF (face-center cubic)
================================================================================
 Values of the parameters that define the memory need for DATASET 15.
     intxc =       0    ionmov =       0      iscf =       7    lmnmax =       6
     lnmax =       6     mgfft =      48  mpssoang =       3    mqgrid =    3001
     natom =       2  nloc_mem =       1    nspden =       1   nspinor =       1
    nsppol =       1      nsym =      24    n1xccc =    2501    ntypat =       2
    occopt =       1   xclevel =       2
-    mband =         480        mffmem =           1         mkmem =           1
       mpw =        4405          nfft =      110592          nkpt =          29
================================================================================
P This job should need less than                      76.069 Mbytes of memory.
  Rough estimation (10% accuracy) of disk space for files :
_ WF disk file :    935.634 Mbytes ; DEN or POT disk file :      0.846 Mbytes.
================================================================================

--------------------------------------------------------------------------------
------------- Echo of variables that govern the present computation ------------
--------------------------------------------------------------------------------
-
- outvars: echo of selected default values                                      
-   iomode0 =  0 , fftalg0 =312 , wfoptalg0 =  0
-
- outvars: echo of global parameters not present in the input file              
-  max_nthreads =    0
-
 -outvars: echo values of preprocessed input variables --------
            acell      1.0673173199E+01  1.0673173199E+01  1.0673173199E+01 Bohr
              amu      6.97230000E+01  7.49215900E+01
             bdgw          12      26      12      26
           diemac      1.20000000E+01
             ecut      4.50000000E+01 Hartree
          ecuteps      1.20000000E+01 Hartree
         ecutsigx      4.50000000E+01 Hartree
-          fftalg         312
-     gwr_np_kgts        4  256    2    1
-  gwr_ucsc_batch        4    4
         gwr_ntau1          6
         gwr_ntau2          8
         gwr_ntau3         10
         gwr_ntau4         12
         gwr_ntau5         14
         gwr_ntau6         16
         gwr_ntau7         18
         gwr_ntau8         20
         gwr_ntau9         22
         gwr_ntau10        24
         gwr_ntau11        26
         gwr_ntau12        28
         gwr_ntau13        30
         gwr_ntau14        32
         gwr_ntau15        34
   gwr_sigma_algo           2
           istwfk        1    0    0    0    1    0    0    0    0    0
                         0    0    0    0    0    0    0    0    0    0
                         1    0    0    0    0    0    0    0    0
              ixc          11
           jdtset        1    2    3    4    5    6    7    8    9   10
                        11   12   13   14   15
              kpt      0.00000000E+00  0.00000000E+00  0.00000000E+00
                       1.25000000E-01  0.00000000E+00  0.00000000E+00
                       2.50000000E-01  0.00000000E+00  0.00000000E+00
                       3.75000000E-01  0.00000000E+00  0.00000000E+00
                       5.00000000E-01  0.00000000E+00  0.00000000E+00
                       1.25000000E-01  1.25000000E-01  0.00000000E+00
                       2.50000000E-01  1.25000000E-01  0.00000000E+00
                       3.75000000E-01  1.25000000E-01  0.00000000E+00
                       5.00000000E-01  1.25000000E-01  0.00000000E+00
                      -3.75000000E-01  1.25000000E-01  0.00000000E+00
                      -2.50000000E-01  1.25000000E-01  0.00000000E+00
                      -1.25000000E-01  1.25000000E-01  0.00000000E+00
                       2.50000000E-01  2.50000000E-01  0.00000000E+00
                       3.75000000E-01  2.50000000E-01  0.00000000E+00
                       5.00000000E-01  2.50000000E-01  0.00000000E+00
                      -3.75000000E-01  2.50000000E-01  0.00000000E+00
                      -2.50000000E-01  2.50000000E-01  0.00000000E+00
                       3.75000000E-01  3.75000000E-01  0.00000000E+00
                       5.00000000E-01  3.75000000E-01  0.00000000E+00
                      -3.75000000E-01  3.75000000E-01  0.00000000E+00
                       5.00000000E-01  5.00000000E-01  0.00000000E+00
                       3.75000000E-01  2.50000000E-01  1.25000000E-01
                       5.00000000E-01  2.50000000E-01  1.25000000E-01
                      -3.75000000E-01  2.50000000E-01  1.25000000E-01
                       5.00000000E-01  3.75000000E-01  1.25000000E-01
                      -3.75000000E-01  3.75000000E-01  1.25000000E-01
                      -2.50000000E-01  3.75000000E-01  1.25000000E-01
                      -3.75000000E-01  5.00000000E-01  1.25000000E-01
                      -2.50000000E-01  5.00000000E-01  2.50000000E-01
            kptgw      0.00000000E+00  0.00000000E+00  0.00000000E+00
                       5.00000000E-01  5.00000000E-01  0.00000000E+00
         kptrlatt        8    0    0      0    8    0      0    0    8
          kptrlen      6.03765852E+01
P           mkmem           1
            natom           2
            nband         480
           ndtset          15
            ngfft          48      48      48
             nkpt          29
           nkptgw           2
            nstep          50
             nsym          24
           ntypat           2
              occ      2.000000  2.000000  2.000000  2.000000  2.000000  2.000000
                       2.000000  2.000000  2.000000  2.000000  2.000000  2.000000
                       2.000000  2.000000  0.000000  0.000000  0.000000  0.000000
                       0.000000  0.000000  0.000000  0.000000  0.000000  0.000000
                       0.000000  0.000000  0.000000  0.000000  0.000000  0.000000
                       0.000000  0.000000  0.000000  0.000000  0.000000  0.000000
                       0.000000  0.000000  0.000000  0.000000  0.000000  0.000000
                       0.000000  0.000000  0.000000  0.000000  0.000000  0.000000
                       0.000000  0.000000  0.000000  0.000000  0.000000  0.000000
                       0.000000  0.000000  0.000000  0.000000  0.000000  0.000000
                       0.000000  0.000000  0.000000  0.000000  0.000000  0.000000
                       0.000000  0.000000  0.000000  0.000000  0.000000  0.000000
                       0.000000  0.000000  0.000000  0.000000  0.000000  0.000000
                       0.000000  0.000000  0.000000  0.000000  0.000000  0.000000
                       0.000000  0.000000  0.000000  0.000000  0.000000  0.000000
                       0.000000  0.000000  0.000000  0.000000  0.000000  0.000000
                       0.000000  0.000000  0.000000  0.000000  0.000000  0.000000
                       0.000000  0.000000  0.000000  0.000000  0.000000  0.000000
                       0.000000  0.000000  0.000000  0.000000  0.000000  0.000000
                       0.000000  0.000000  0.000000  0.000000  0.000000  0.000000
                       0.000000  0.000000  0.000000  0.000000  0.000000  0.000000
                       0.000000  0.000000  0.000000  0.000000  0.000000  0.000000
                       0.000000  0.000000  0.000000  0.000000  0.000000  0.000000
                       0.000000  0.000000  0.000000  0.000000  0.000000  0.000000
                       0.000000  0.000000  0.000000  0.000000  0.000000  0.000000
                       0.000000  0.000000  0.000000  0.000000  0.000000  0.000000
                       0.000000  0.000000  0.000000  0.000000  0.000000  0.000000
                       0.000000  0.000000  0.000000  0.000000  0.000000  0.000000
                       0.000000  0.000000  0.000000  0.000000  0.000000  0.000000
                       0.000000  0.000000  0.000000  0.000000  0.000000  0.000000
                       0.000000  0.000000  0.000000  0.000000  0.000000  0.000000
                       0.000000  0.000000  0.000000  0.000000  0.000000  0.000000
                       0.000000  0.000000  0.000000  0.000000  0.000000  0.000000
                       0.000000  0.000000  0.000000  0.000000  0.000000  0.000000
                       0.000000  0.000000  0.000000  0.000000  0.000000  0.000000
                       0.000000  0.000000  0.000000  0.000000  0.000000  0.000000
                       0.000000  0.000000  0.000000  0.000000  0.000000  0.000000
                       0.000000  0.000000  0.000000  0.000000  0.000000  0.000000
                       0.000000  0.000000  0.000000  0.000000  0.000000  0.000000
                       0.000000  0.000000  0.000000  0.000000  0.000000  0.000000
                       0.000000  0.000000  0.000000  0.000000  0.000000  0.000000
                       0.000000  0.000000  0.000000  0.000000  0.000000  0.000000
                       0.000000  0.000000  0.000000  0.000000  0.000000  0.000000
                       0.000000  0.000000  0.000000  0.000000  0.000000  0.000000
                       0.000000  0.000000  0.000000  0.000000  0.000000  0.000000
                       0.000000  0.000000  0.000000  0.000000  0.000000  0.000000
                       0.000000  0.000000  0.000000  0.000000  0.000000  0.000000
                       0.000000  0.000000  0.000000  0.000000  0.000000  0.000000
                       0.000000  0.000000  0.000000  0.000000  0.000000  0.000000
                       0.000000  0.000000  0.000000  0.000000  0.000000  0.000000
                       0.000000  0.000000  0.000000  0.000000  0.000000  0.000000
                       0.000000  0.000000  0.000000  0.000000  0.000000  0.000000
                       0.000000  0.000000  0.000000  0.000000  0.000000  0.000000
                       0.000000  0.000000  0.000000  0.000000  0.000000  0.000000
                       0.000000  0.000000  0.000000  0.000000  0.000000  0.000000
                       0.000000  0.000000  0.000000  0.000000  0.000000  0.000000
                       0.000000  0.000000  0.000000  0.000000  0.000000  0.000000
                       0.000000  0.000000  0.000000  0.000000  0.000000  0.000000
                       0.000000  0.000000  0.000000  0.000000  0.000000  0.000000
                       0.000000  0.000000  0.000000  0.000000  0.000000  0.000000
                       0.000000  0.000000  0.000000  0.000000  0.000000  0.000000
                       0.000000  0.000000  0.000000  0.000000  0.000000  0.000000
                       0.000000  0.000000  0.000000  0.000000  0.000000  0.000000
                       0.000000  0.000000  0.000000  0.000000  0.000000  0.000000
                       0.000000  0.000000  0.000000  0.000000  0.000000  0.000000
                       0.000000  0.000000  0.000000  0.000000  0.000000  0.000000
                       0.000000  0.000000  0.000000  0.000000  0.000000  0.000000
                       0.000000  0.000000  0.000000  0.000000  0.000000  0.000000
                       0.000000  0.000000  0.000000  0.000000  0.000000  0.000000
                       0.000000  0.000000  0.000000  0.000000  0.000000  0.000000
                       0.000000  0.000000  0.000000  0.000000  0.000000  0.000000
                       0.000000  0.000000  0.000000  0.000000  0.000000  0.000000
                       0.000000  0.000000  0.000000  0.000000  0.000000  0.000000
                       0.000000  0.000000  0.000000  0.000000  0.000000  0.000000
                       0.000000  0.000000  0.000000  0.000000  0.000000  0.000000
                       0.000000  0.000000  0.000000  0.000000  0.000000  0.000000
                       0.000000  0.000000  0.000000  0.000000  0.000000  0.000000
                       0.000000  0.000000  0.000000  0.000000  0.000000  0.000000
                       0.000000  0.000000  0.000000  0.000000  0.000000  0.000000
                       0.000000  0.000000  0.000000  0.000000  0.000000  0.000000
        optdriver           6
            rprim      0.0000000000E+00  5.0000000000E-01  5.0000000000E-01
                       5.0000000000E-01  0.0000000000E+00  5.0000000000E-01
                       5.0000000000E-01  5.0000000000E-01  0.0000000000E+00
          spgroup         216
           symrel      1  0  0   0  1  0   0  0  1       0 -1  1   0 -1  0   1 -1  0
                      -1  0  0  -1  0  1  -1  1  0       0  1 -1   1  0 -1   0  0 -1
                      -1  0  0  -1  1  0  -1  0  1       0 -1  1   1 -1  0   0 -1  0
                       1  0  0   0  0  1   0  1  0       0  1 -1   0  0 -1   1  0 -1
                      -1  0  1  -1  1  0  -1  0  0       0 -1  0   1 -1  0   0 -1  1
                       1  0 -1   0  0 -1   0  1 -1       0  1  0   0  0  1   1  0  0
                       1  0 -1   0  1 -1   0  0 -1       0 -1  0   0 -1  1   1 -1  0
                      -1  0  1  -1  0  0  -1  1  0       0  1  0   1  0  0   0  0  1
                       0  0 -1   0  1 -1   1  0 -1       1 -1  0   0 -1  1   0 -1  0
                       0  0  1   1  0  0   0  1  0      -1  1  0  -1  0  0  -1  0  1
                       0  0  1   0  1  0   1  0  0       1 -1  0   0 -1  0   0 -1  1
                       0  0 -1   1  0 -1   0  1 -1      -1  1  0  -1  0  1  -1  0  0
           timopt          -1
            typat      1  2
              wtk        0.00195    0.01563    0.01563    0.01563    0.00781    0.01172
                         0.04688    0.04688    0.04688    0.04688    0.04688    0.02344
                         0.01172    0.04688    0.04688    0.04688    0.02344    0.01172
                         0.04688    0.02344    0.00586    0.04688    0.09375    0.04688
                         0.04688    0.09375    0.04688    0.02344    0.01172
           xangst      0.0000000000E+00  0.0000000000E+00  0.0000000000E+00
                       1.4120000000E+00  1.4120000000E+00  1.4120000000E+00
            xcart      0.0000000000E+00  0.0000000000E+00  0.0000000000E+00
                       2.6682932996E+00  2.6682932996E+00  2.6682932996E+00
             xred      0.0000000000E+00  0.0000000000E+00  0.0000000000E+00
                       2.5000000000E-01  2.5000000000E-01  2.5000000000E-01
            znucl       31.00000   33.00000

================================================================================

 chkinp: Checking input parameters for consistency, jdtset=   1.

 chkinp: Checking input parameters for consistency, jdtset=   2.

 chkinp: Checking input parameters for consistency, jdtset=   3.

 chkinp: Checking input parameters for consistency, jdtset=   4.

 chkinp: Checking input parameters for consistency, jdtset=   5.

 chkinp: Checking input parameters for consistency, jdtset=   6.

 chkinp: Checking input parameters for consistency, jdtset=   7.

 chkinp: Checking input parameters for consistency, jdtset=   8.

 chkinp: Checking input parameters for consistency, jdtset=   9.

 chkinp: Checking input parameters for consistency, jdtset=  10.

 chkinp: Checking input parameters for consistency, jdtset=  11.

 chkinp: Checking input parameters for consistency, jdtset=  12.

 chkinp: Checking input parameters for consistency, jdtset=  13.

 chkinp: Checking input parameters for consistency, jdtset=  14.

 chkinp: Checking input parameters for consistency, jdtset=  15.

================================================================================
== DATASET  1 ==================================================================
-   mpi_nproc: 2048, omp_nthreads: -1 (-1 if OMP is not activated)


--- !DatasetInfo
iteration_state: {dtset: 1, }
dimensions: {natom: 2, nkpt: 29, mband: 480, nsppol: 1, nspinor: 1, nspden: 1, mpw: 4405, }
cutoff_energies: {ecut:  45.0, pawecutdg:  -1.0, }
electrons: {nelect:   2.80000000E+01, charge:   0.00000000E+00, occopt:   1.00000000E+00, tsmear:   1.00000000E-02, }
meta: {optdriver: 6, }
...

 mkfilename: getwfk from: ../outdata_gs_DS2_WFK

 mkfilename: getden from: ../outdata_gs_DS1_DEN

 Exchange-correlation functional for the present dataset will be:
  GGA: Perdew-Burke-Ernzerhof functional - ixc=11
 Citation for XC functional:
  J.P.Perdew, K.Burke, M.Ernzerhof, PRL 77, 3865 (1996)

.Using single precision arithmetic; gwpc =  4

- Reading GS density from: ../outdata_gs_DS1_DEN




--- Pseudopotential description ------------------------------------------------
- pspini: atom type   1  psp file is ../Ga.psp8
- pspatm: opening atomic psp file    ../Ga.psp8
- Ga    ONCVPSP-3.2.3.1  r_core=   1.66857   1.75011   1.90252
- 31.00000  13.00000    170504                znucl, zion, pspdat
    8   11    2    4       600   0.00000      pspcod,pspxc,lmax,lloc,mmax,r2well
    5.99000000000000    5.00000000000000    0.00000000000000   rchrg,fchrg,qchrg
     nproj     2     2     2
     extension_switch     1
  pspatm : epsatm=   24.69408336
         --- l  ekb(1:nproj) -->
             0    7.029782    1.144675
             1    6.805229    1.288163
             2   -8.378254   -2.820764
 pspatm: atomic psp has been read  and splines computed

- pspini: atom type   2  psp file is ../As.psp8
- pspatm: opening atomic psp file    ../As.psp8
- As    ONCVPSP-3.2.3.1  r_core=   1.76603   1.70395   1.80867
- 33.00000  15.00000    170703                znucl, zion, pspdat
    8   11    2    4       600   0.00000      pspcod,pspxc,lmax,lloc,mmax,r2well
    5.99000000000000    5.00000000000000    0.00000000000000   rchrg,fchrg,qchrg
     nproj     2     2     2
     extension_switch     1
  pspatm : epsatm=   28.90894586
         --- l  ekb(1:nproj) -->
             0    8.305110    0.874814
             1    4.929784    0.754498
             2  -10.035573   -4.078419
 pspatm: atomic psp has been read  and splines computed

   1.50088482E+03                                ecore*ucvol(ha*bohr**3)
--------------------------------------------------------------------------------

 Total charge density [el/Bohr^3]
)     Maximum=    2.4085E+00  at reduced coord.    0.2708    0.2708    0.3125
)     Minimum=    5.2503E-05  at reduced coord.    0.0000    0.0000    0.0000
   Integrated=    2.8000E+01
- Reading GS states from WFK file: ../outdata_gs_DS2_WFK
  Mapping kBZ --> kIBZ
 Legend: bz = TS(ibz) + g0 where isym is the index of the symrec operation S and itim is 1 if TR is used.
        BZ                                       IBZ                                       ibz  isym  itim  g0
     1  [ 0.0000E+00,  0.0000E+00,  0.0000E+00]  [ 0.0000E+00,  0.0000E+00,  0.0000E+00]     1     1     0  [0, 0, 0]
     2  [ 1.2500E-01,  0.0000E+00,  0.0000E+00]  [ 1.2500E-01,  0.0000E+00,  0.0000E+00]     2     1     0  [0, 0, 0]
     3  [-1.2500E-01,  0.0000E+00,  0.0000E+00]  [ 1.2500E-01,  0.0000E+00,  0.0000E+00]     2     1     1  [0, 0, 0]
     4  [ 0.0000E+00,  0.0000E+00, -1.2500E-01]  [ 1.2500E-01,  0.0000E+00,  0.0000E+00]     2     2     1  [0, 0, 0]
     5  [ 0.0000E+00,  1.2500E-01,  0.0000E+00]  [ 1.2500E-01,  0.0000E+00,  0.0000E+00]     2     4     0  [0, 0, 0]
     6  [ 1.2500E-01,  1.2500E-01,  1.2500E-01]  [ 1.2500E-01,  0.0000E+00,  0.0000E+00]     2     3     1  [0, 0, 0]
     7  [-1.2500E-01, -1.2500E-01, -1.2500E-01]  [ 1.2500E-01,  0.0000E+00,  0.0000E+00]     2     3     0  [0, 0, 0]
     8  [ 0.0000E+00, -1.2500E-01,  0.0000E+00]  [ 1.2500E-01,  0.0000E+00,  0.0000E+00]     2     4     1  [0, 0, 0]
     9  [ 0.0000E+00,  0.0000E+00,  1.2500E-01]  [ 1.2500E-01,  0.0000E+00,  0.0000E+00]     2     2     0  [0, 0, 0]
    10  [ 2.5000E-01,  0.0000E+00,  0.0000E+00]  [ 2.5000E-01,  0.0000E+00,  0.0000E+00]     3     1     0  [0, 0, 0]
    11  [ 2.5000E-01,  2.5000E-01,  2.5000E-01]  [ 2.5000E-01,  0.0000E+00,  0.0000E+00]     3     3     1  [0, 0, 0]
    12  [ 0.0000E+00,  2.5000E-01,  0.0000E+00]  [ 2.5000E-01,  0.0000E+00,  0.0000E+00]     3     4     0  [0, 0, 0]
    13  [ 0.0000E+00, -2.5000E-01,  0.0000E+00]  [ 2.5000E-01,  0.0000E+00,  0.0000E+00]     3     4     1  [0, 0, 0]
    14  [-2.5000E-01,  0.0000E+00,  0.0000E+00]  [ 2.5000E-01,  0.0000E+00,  0.0000E+00]     3     1     1  [0, 0, 0]
    15  [ 0.0000E+00,  0.0000E+00,  2.5000E-01]  [ 2.5000E-01,  0.0000E+00,  0.0000E+00]     3     2     0  [0, 0, 0]
    16  [ 0.0000E+00,  0.0000E+00, -2.5000E-01]  [ 2.5000E-01,  0.0000E+00,  0.0000E+00]     3     2     1  [0, 0, 0]
    17  [-2.5000E-01, -2.5000E-01, -2.5000E-01]  [ 2.5000E-01,  0.0000E+00,  0.0000E+00]     3     3     0  [0, 0, 0]
    18  [ 3.7500E-01,  0.0000E+00,  0.0000E+00]  [ 3.7500E-01,  0.0000E+00,  0.0000E+00]     4     1     0  [0, 0, 0]
    19  [-3.7500E-01, -3.7500E-01, -3.7500E-01]  [ 3.7500E-01,  0.0000E+00,  0.0000E+00]     4     3     0  [0, 0, 0]
    20  [ 0.0000E+00,  0.0000E+00, -3.7500E-01]  [ 3.7500E-01,  0.0000E+00,  0.0000E+00]     4     2     1  [0, 0, 0]
prtvol = 0, max 20 points are written


  Mapping qBZ --> qIBZ
 Legend: bz = TS(ibz) + g0 where isym is the index of the symrec operation S and itim is 1 if TR is used.
        BZ                                       IBZ                                       ibz  isym  itim  g0
     1  [ 0.0000E+00,  0.0000E+00,  0.0000E+00]  [ 0.0000E+00,  0.0000E+00,  0.0000E+00]     1     1     0  [0, 0, 0]
     2  [ 1.2500E-01,  0.0000E+00,  0.0000E+00]  [ 1.2500E-01,  0.0000E+00,  0.0000E+00]     2     1     0  [0, 0, 0]
     3  [-1.2500E-01,  0.0000E+00,  0.0000E+00]  [ 1.2500E-01,  0.0000E+00,  0.0000E+00]     2     1     1  [0, 0, 0]
     4  [ 0.0000E+00,  0.0000E+00, -1.2500E-01]  [ 1.2500E-01,  0.0000E+00,  0.0000E+00]     2     2     1  [0, 0, 0]
     5  [ 0.0000E+00,  1.2500E-01,  0.0000E+00]  [ 1.2500E-01,  0.0000E+00,  0.0000E+00]     2     4     0  [0, 0, 0]
     6  [ 1.2500E-01,  1.2500E-01,  1.2500E-01]  [ 1.2500E-01,  0.0000E+00,  0.0000E+00]     2     3     1  [0, 0, 0]
     7  [-1.2500E-01, -1.2500E-01, -1.2500E-01]  [ 1.2500E-01,  0.0000E+00,  0.0000E+00]     2     3     0  [0, 0, 0]
     8  [ 0.0000E+00, -1.2500E-01,  0.0000E+00]  [ 1.2500E-01,  0.0000E+00,  0.0000E+00]     2     4     1  [0, 0, 0]
     9  [ 0.0000E+00,  0.0000E+00,  1.2500E-01]  [ 1.2500E-01,  0.0000E+00,  0.0000E+00]     2     2     0  [0, 0, 0]
    10  [ 2.5000E-01,  0.0000E+00,  0.0000E+00]  [ 2.5000E-01,  0.0000E+00,  0.0000E+00]     3     1     0  [0, 0, 0]
    11  [ 2.5000E-01,  2.5000E-01,  2.5000E-01]  [ 2.5000E-01,  0.0000E+00,  0.0000E+00]     3     3     1  [0, 0, 0]
    12  [ 0.0000E+00,  2.5000E-01,  0.0000E+00]  [ 2.5000E-01,  0.0000E+00,  0.0000E+00]     3     4     0  [0, 0, 0]
    13  [ 0.0000E+00, -2.5000E-01,  0.0000E+00]  [ 2.5000E-01,  0.0000E+00,  0.0000E+00]     3     4     1  [0, 0, 0]
    14  [-2.5000E-01,  0.0000E+00,  0.0000E+00]  [ 2.5000E-01,  0.0000E+00,  0.0000E+00]     3     1     1  [0, 0, 0]
    15  [ 0.0000E+00,  0.0000E+00,  2.5000E-01]  [ 2.5000E-01,  0.0000E+00,  0.0000E+00]     3     2     0  [0, 0, 0]
    16  [ 0.0000E+00,  0.0000E+00, -2.5000E-01]  [ 2.5000E-01,  0.0000E+00,  0.0000E+00]     3     2     1  [0, 0, 0]
    17  [-2.5000E-01, -2.5000E-01, -2.5000E-01]  [ 2.5000E-01,  0.0000E+00,  0.0000E+00]     3     3     0  [0, 0, 0]
    18  [ 3.7500E-01,  0.0000E+00,  0.0000E+00]  [ 3.7500E-01,  0.0000E+00,  0.0000E+00]     4     1     0  [0, 0, 0]
    19  [-3.7500E-01, -3.7500E-01, -3.7500E-01]  [ 3.7500E-01,  0.0000E+00,  0.0000E+00]     4     3     0  [0, 0, 0]
    20  [ 0.0000E+00,  0.0000E+00, -3.7500E-01]  [ 3.7500E-01,  0.0000E+00,  0.0000E+00]     4     2     1  [0, 0, 0]
prtvol = 0, max 20 points are written



 === Kohn-Sham gaps and band edges from IBZ mesh ===
 Direct band gap semiconductor
 Fundamental gap:     0.538 (eV)
   VBM:    -0.269 (eV) at k: [ 0.0000E+00,  0.0000E+00,  0.0000E+00]
   CBM:     0.269 (eV) at k: [ 0.0000E+00,  0.0000E+00,  0.0000E+00]
 Direct gap:         0.538 (eV) at k: [ 0.0000E+00,  0.0000E+00,  0.0000E+00]


 ==== FFT mesh for Green's function ====
  FFT mesh divisions ........................    24   24   24
  Augmented FFT divisions ...................    24   24   24
  FFT algorithm .............................   312
  FFT cache size ............................    16
- FFT uc_batch_size: 4
- FFT sc_batch_size: 4
 ==== Info on the GWR object ====

--- !GWR_params
iteration_state: {dtset: 1, }
gwr_task: G0W0
nband: 480
ntau: 6
ngkpt: [8, 8, 8, ]
ngqpt: [8, 8, 8, ]
chi_algo: supercell
sigma_algo: 'BZ-convolutions'
nkibz: 29
nqibz: 29
inclvkb: 2
q0: [  1.00000000E-05,   2.00000000E-05,   3.00000000E-05, ]
gw_icutcoul: 6
green_mpw: 4405
tchi_mpw: 620
g_ngfft: [24, 24, 24, 24, 24, 24, ]
P gwr_np_kgts: [4, 256, 2, 1, ]
P np_kibz: [
    1, 1, 1, 1, 1, 1, 1, 1, 
    1, 2, 1, 1, 1, 1, 1, 1, 
    2, 1, 1, 1, 1, 1, 1, 2, 
    1, 1, 1, 1, 1, 
]
P np_qibz: [
    1, 1, 1, 1, 1, 1, 1, 1, 
    1, 2, 1, 1, 1, 1, 1, 1, 
    2, 1, 1, 1, 1, 1, 1, 2, 
    1, 1, 1, 1, 1, 
]
min_transition_energy_eV:   1.97885547E-02
max_transition_energy_eV:   1.11010036E+01
eratio:   5.60981018E+02
ft_max_err_t2w_cos:   2.88876647E-02
ft_max_err_w2t_cos:   2.23780315E-02
ft_max_err_t2w_sin:   1.43274805E+00
cosft_duality_error:   1.69410422E-03
Minimax imaginary tau/omega mesh: !Tabular | # tau, weight(tau), omega, weight(omega)
    1 6.91308E-02   1.99002E-01   8.14819E-03   1.73409E-02
    2 5.76717E-01   9.80934E-01   3.15769E-02   3.31339E-02
    3 2.61279E+00   3.55807E+00   8.71348E-02   8.91257E-02
    4 9.20810E+00   1.07930E+01   2.55495E-01   2.92191E-01
    5 2.78504E+01   2.92744E+01   8.86527E-01   1.21155E+00
    6 7.73348E+01   7.84795E+01   4.25873E+00   7.89531E+00
...


 Computing chi0 head and wings with inclvkb: 2
 Using KS orbitals and KS energies...


 ==== FFT mesh for chi0 head/wings computation ====
  FFT mesh divisions ........................    48   48   48
  Augmented FFT divisions ...................    49   49   48
  FFT algorithm .............................   312
  FFT cache size ............................    16

 Computing diagonal matrix elements of Sigma_x
 Using KS orbitals and KS energies...


 ==== FFT mesh for Sigma_x ====
  FFT mesh divisions ........................    48   48   48
  Augmented FFT divisions ...................    49   49   48
  FFT algorithm .............................   312
  FFT cache size ............................    16


 Building Green's functions from KS orbitals and KS energies...



 Building correlated screening Wc ...

--- !EMACRO_WITHOUT_LOCAL_FIELDS
iteration_state: {dtset: 1, }
'epsilon_{iw, q -> Gamma}(0,0)': !Tabular |
      8.14819275E-03    2.63352089E+01   -1.80394261E-16
      3.15768840E-02    1.76420460E+01   -1.07976908E-16
      8.71348424E-02    1.07240686E+01   -1.15677792E-17
      2.55494539E-01    4.33994627E+00   -1.70278417E-18
      8.86526540E-01    1.53867006E+00   -8.38853527E-19
      4.25873144E+00    1.06247115E+00   -1.86667425E-20
...


--- !EMACRO_WITH_LOCAL_FIELDS
iteration_state: {dtset: 1, }
'epsilon_{iw, q -> Gamma}(0,0)': !Tabular |
      8.14819275E-03    4.00452279E-02    0.00000000E+00
      3.15768840E-02    6.09374531E-02    0.00000000E+00
      8.71348424E-02    1.01631366E-01    0.00000000E+00
      2.55494539E-01    2.47955382E-01    0.00000000E+00
      8.86526540E-01    6.77075803E-01    0.00000000E+00
      4.25873144E+00    9.49267566E-01    0.00000000E+00
...



 Building Sigma_c with convolutions in k-space:
================================================================================
 QP results (energies in eV)
 Notations:
     E0: Kohn-Sham energy
     <VxcDFT>: Matrix elements of Vxc[n_val] without non-linear core correction (if any)
     SigX: Matrix elements of Sigma_x
     SigC(E0): Matrix elements of Sigma_c at E0
     Z: Renormalization factor
     E-E0: Difference between the QP and the KS energy.
     E-Eprev: Difference between QP energy at iteration i and i-1
     E: Quasi-particle energy
     Occ(E): Occupancy of QP state
 
 

--- !GWR_SelfEnergy_ee
iteration_state: {dtset: 1, }
kpoint     : [   0.000,    0.000,    0.000, ]
spin       : 1
gwr_scf_iteration: 1
gwr_task   : G0W0
QP_VBM_band: 12
QP_CBM_band: 15
KS_gap     :    0.538
QP_gap     :    0.716
Delta_QP_KS:    0.177
data: !Tabular |
     Band       E0 <VxcDFT>     SigX SigC(E0)        Z     E-E0  E-Eprev        E   Occ(E)
       12   -0.269  -13.352  -15.455    0.851    0.630   -0.785   -0.785   -1.054    2.000
       13   -0.269  -13.352  -15.455    0.851    0.630   -0.785   -0.785   -1.054    2.000
       14   -0.269  -13.352  -15.455    0.851    0.630   -0.785   -0.785   -1.054    2.000
       15    0.269  -13.918  -10.915   -4.086    0.555   -0.607   -0.607   -0.338    0.000
       16    3.475  -10.865   -7.018   -4.591    0.701   -0.534   -0.534    2.941    0.000
       17    3.475  -10.865   -7.018   -4.591    0.701   -0.534   -0.534    2.941    0.000
       18    3.475  -10.865   -7.018   -4.591    0.701   -0.534   -0.534    2.941    0.000
       19    7.346   -8.583   -3.702   -5.610    0.768   -0.601   -0.601    6.745    0.000
       20    9.905  -10.862   -4.715   -5.456    0.797    0.509    0.509   10.414    0.000
       21    9.905  -10.862   -4.715   -5.456    0.797    0.509    0.509   10.414    0.000
       22   11.322   -8.013   -2.523   -5.226    0.828    0.208    0.208   11.530    0.000
       23   11.322   -8.013   -2.523   -5.226    0.828    0.208    0.208   11.530    0.000
       24   11.322   -8.013   -2.523   -5.226    0.828    0.208    0.208   11.530    0.000
       25   14.305   -6.347   -1.435   -4.573    0.884    0.292    0.292   14.597    0.000
       26   25.443  -12.009   -5.246   -3.587    1.033    3.303    3.303   28.746    0.000
       27   25.443  -12.009   -5.246   -3.587    1.033    3.303    3.303   28.746    0.000
       28   25.443  -12.009   -5.246   -3.587    1.033    3.303    3.303   28.746    0.000
...


--- !GWR_SelfEnergy_ee
iteration_state: {dtset: 1, }
kpoint     : [   0.500,    0.500,    0.000, ]
spin       : 1
gwr_scf_iteration: 1
gwr_task   : G0W0
QP_VBM_band: 13
QP_CBM_band: 15
KS_gap     :    4.151
QP_gap     :    4.447
Delta_QP_KS:    0.296
data: !Tabular |
     Band       E0 <VxcDFT>     SigX SigC(E0)        Z     E-E0  E-Eprev        E   Occ(E)
       12   -7.094  -12.011  -16.886    4.150    0.640   -0.244   -0.244   -7.338    2.000
       13   -2.954  -11.736  -15.125    2.440    0.645   -0.608   -0.608   -3.561    2.000
       14   -2.954  -11.736  -15.125    2.440    0.645   -0.608   -0.608   -3.561    2.000
       15    1.197   -9.409   -5.892   -3.950    0.722   -0.312   -0.312    0.885    0.000
       16    1.394  -10.553   -6.927   -4.172    0.685   -0.373   -0.373    1.021    0.000
       17    9.931  -12.500   -6.916   -6.854    0.744   -2.362   -2.362    7.569    0.000
       18    9.931  -12.500   -6.916   -6.854    0.744   -2.362   -2.362    7.569    0.000
       19   10.736  -12.016   -6.707   -6.144    1.007   -2.774   -2.774    7.962    0.000
       20   13.084  -11.588   -5.755   -6.318    0.908   -1.458   -1.458   11.626    0.000
       21   13.188  -11.083   -4.647   -5.936    0.800    0.307    0.307   13.495    0.000
       22   13.188  -11.083   -4.647   -5.936    0.800    0.307    0.307   13.495    0.000
       23   13.296  -10.741   -4.071   -5.814    0.810    0.658    0.658   13.954    0.000
       24   15.163  -10.445   -3.504   -5.851    0.819    0.877    0.877   16.040    0.000
       25   19.324   -9.990   -3.138   -5.982    0.817    0.690    0.690   20.014    0.000
       26   19.572   -8.834   -2.423   -5.351    0.863    0.912    0.912   20.484    0.000
       27   19.572   -8.834   -2.423   -5.351    0.863    0.912    0.912   20.484    0.000
...


================================================================================
== DATASET  2 ==================================================================
-   mpi_nproc: 2048, omp_nthreads: -1 (-1 if OMP is not activated)


--- !DatasetInfo
iteration_state: {dtset: 2, }
dimensions: {natom: 2, nkpt: 29, mband: 480, nsppol: 1, nspinor: 1, nspden: 1, mpw: 4405, }
cutoff_energies: {ecut:  45.0, pawecutdg:  -1.0, }
electrons: {nelect:   2.80000000E+01, charge:   0.00000000E+00, occopt:   1.00000000E+00, tsmear:   1.00000000E-02, }
meta: {optdriver: 6, }
...

 mkfilename: getwfk from: ../outdata_gs_DS2_WFK

 mkfilename: getden from: ../outdata_gs_DS1_DEN

 Exchange-correlation functional for the present dataset will be:
  GGA: Perdew-Burke-Ernzerhof functional - ixc=11
 Citation for XC functional:
  J.P.Perdew, K.Burke, M.Ernzerhof, PRL 77, 3865 (1996)

.Using single precision arithmetic; gwpc =  4

- Reading GS density from: ../outdata_gs_DS1_DEN



--------------------------------------------------------------------------------

 Total charge density [el/Bohr^3]
)     Maximum=    2.4085E+00  at reduced coord.    0.2708    0.2708    0.3125
)     Minimum=    5.2503E-05  at reduced coord.    0.0000    0.0000    0.0000
   Integrated=    2.8000E+01
- Reading GS states from WFK file: ../outdata_gs_DS2_WFK
  Mapping kBZ --> kIBZ
 Legend: bz = TS(ibz) + g0 where isym is the index of the symrec operation S and itim is 1 if TR is used.
        BZ                                       IBZ                                       ibz  isym  itim  g0
     1  [ 0.0000E+00,  0.0000E+00,  0.0000E+00]  [ 0.0000E+00,  0.0000E+00,  0.0000E+00]     1     1     0  [0, 0, 0]
     2  [ 1.2500E-01,  0.0000E+00,  0.0000E+00]  [ 1.2500E-01,  0.0000E+00,  0.0000E+00]     2     1     0  [0, 0, 0]
     3  [-1.2500E-01,  0.0000E+00,  0.0000E+00]  [ 1.2500E-01,  0.0000E+00,  0.0000E+00]     2     1     1  [0, 0, 0]
     4  [ 0.0000E+00,  0.0000E+00, -1.2500E-01]  [ 1.2500E-01,  0.0000E+00,  0.0000E+00]     2     2     1  [0, 0, 0]
     5  [ 0.0000E+00,  1.2500E-01,  0.0000E+00]  [ 1.2500E-01,  0.0000E+00,  0.0000E+00]     2     4     0  [0, 0, 0]
     6  [ 1.2500E-01,  1.2500E-01,  1.2500E-01]  [ 1.2500E-01,  0.0000E+00,  0.0000E+00]     2     3     1  [0, 0, 0]
     7  [-1.2500E-01, -1.2500E-01, -1.2500E-01]  [ 1.2500E-01,  0.0000E+00,  0.0000E+00]     2     3     0  [0, 0, 0]
     8  [ 0.0000E+00, -1.2500E-01,  0.0000E+00]  [ 1.2500E-01,  0.0000E+00,  0.0000E+00]     2     4     1  [0, 0, 0]
     9  [ 0.0000E+00,  0.0000E+00,  1.2500E-01]  [ 1.2500E-01,  0.0000E+00,  0.0000E+00]     2     2     0  [0, 0, 0]
    10  [ 2.5000E-01,  0.0000E+00,  0.0000E+00]  [ 2.5000E-01,  0.0000E+00,  0.0000E+00]     3     1     0  [0, 0, 0]
    11  [ 2.5000E-01,  2.5000E-01,  2.5000E-01]  [ 2.5000E-01,  0.0000E+00,  0.0000E+00]     3     3     1  [0, 0, 0]
    12  [ 0.0000E+00,  2.5000E-01,  0.0000E+00]  [ 2.5000E-01,  0.0000E+00,  0.0000E+00]     3     4     0  [0, 0, 0]
    13  [ 0.0000E+00, -2.5000E-01,  0.0000E+00]  [ 2.5000E-01,  0.0000E+00,  0.0000E+00]     3     4     1  [0, 0, 0]
    14  [-2.5000E-01,  0.0000E+00,  0.0000E+00]  [ 2.5000E-01,  0.0000E+00,  0.0000E+00]     3     1     1  [0, 0, 0]
    15  [ 0.0000E+00,  0.0000E+00,  2.5000E-01]  [ 2.5000E-01,  0.0000E+00,  0.0000E+00]     3     2     0  [0, 0, 0]
    16  [ 0.0000E+00,  0.0000E+00, -2.5000E-01]  [ 2.5000E-01,  0.0000E+00,  0.0000E+00]     3     2     1  [0, 0, 0]
    17  [-2.5000E-01, -2.5000E-01, -2.5000E-01]  [ 2.5000E-01,  0.0000E+00,  0.0000E+00]     3     3     0  [0, 0, 0]
    18  [ 3.7500E-01,  0.0000E+00,  0.0000E+00]  [ 3.7500E-01,  0.0000E+00,  0.0000E+00]     4     1     0  [0, 0, 0]
    19  [-3.7500E-01, -3.7500E-01, -3.7500E-01]  [ 3.7500E-01,  0.0000E+00,  0.0000E+00]     4     3     0  [0, 0, 0]
    20  [ 0.0000E+00,  0.0000E+00, -3.7500E-01]  [ 3.7500E-01,  0.0000E+00,  0.0000E+00]     4     2     1  [0, 0, 0]
prtvol = 0, max 20 points are written


  Mapping qBZ --> qIBZ
 Legend: bz = TS(ibz) + g0 where isym is the index of the symrec operation S and itim is 1 if TR is used.
        BZ                                       IBZ                                       ibz  isym  itim  g0
     1  [ 0.0000E+00,  0.0000E+00,  0.0000E+00]  [ 0.0000E+00,  0.0000E+00,  0.0000E+00]     1     1     0  [0, 0, 0]
     2  [ 1.2500E-01,  0.0000E+00,  0.0000E+00]  [ 1.2500E-01,  0.0000E+00,  0.0000E+00]     2     1     0  [0, 0, 0]
     3  [-1.2500E-01,  0.0000E+00,  0.0000E+00]  [ 1.2500E-01,  0.0000E+00,  0.0000E+00]     2     1     1  [0, 0, 0]
     4  [ 0.0000E+00,  0.0000E+00, -1.2500E-01]  [ 1.2500E-01,  0.0000E+00,  0.0000E+00]     2     2     1  [0, 0, 0]
     5  [ 0.0000E+00,  1.2500E-01,  0.0000E+00]  [ 1.2500E-01,  0.0000E+00,  0.0000E+00]     2     4     0  [0, 0, 0]
     6  [ 1.2500E-01,  1.2500E-01,  1.2500E-01]  [ 1.2500E-01,  0.0000E+00,  0.0000E+00]     2     3     1  [0, 0, 0]
     7  [-1.2500E-01, -1.2500E-01, -1.2500E-01]  [ 1.2500E-01,  0.0000E+00,  0.0000E+00]     2     3     0  [0, 0, 0]
     8  [ 0.0000E+00, -1.2500E-01,  0.0000E+00]  [ 1.2500E-01,  0.0000E+00,  0.0000E+00]     2     4     1  [0, 0, 0]
     9  [ 0.0000E+00,  0.0000E+00,  1.2500E-01]  [ 1.2500E-01,  0.0000E+00,  0.0000E+00]     2     2     0  [0, 0, 0]
    10  [ 2.5000E-01,  0.0000E+00,  0.0000E+00]  [ 2.5000E-01,  0.0000E+00,  0.0000E+00]     3     1     0  [0, 0, 0]
    11  [ 2.5000E-01,  2.5000E-01,  2.5000E-01]  [ 2.5000E-01,  0.0000E+00,  0.0000E+00]     3     3     1  [0, 0, 0]
    12  [ 0.0000E+00,  2.5000E-01,  0.0000E+00]  [ 2.5000E-01,  0.0000E+00,  0.0000E+00]     3     4     0  [0, 0, 0]
    13  [ 0.0000E+00, -2.5000E-01,  0.0000E+00]  [ 2.5000E-01,  0.0000E+00,  0.0000E+00]     3     4     1  [0, 0, 0]
    14  [-2.5000E-01,  0.0000E+00,  0.0000E+00]  [ 2.5000E-01,  0.0000E+00,  0.0000E+00]     3     1     1  [0, 0, 0]
    15  [ 0.0000E+00,  0.0000E+00,  2.5000E-01]  [ 2.5000E-01,  0.0000E+00,  0.0000E+00]     3     2     0  [0, 0, 0]
    16  [ 0.0000E+00,  0.0000E+00, -2.5000E-01]  [ 2.5000E-01,  0.0000E+00,  0.0000E+00]     3     2     1  [0, 0, 0]
    17  [-2.5000E-01, -2.5000E-01, -2.5000E-01]  [ 2.5000E-01,  0.0000E+00,  0.0000E+00]     3     3     0  [0, 0, 0]
    18  [ 3.7500E-01,  0.0000E+00,  0.0000E+00]  [ 3.7500E-01,  0.0000E+00,  0.0000E+00]     4     1     0  [0, 0, 0]
    19  [-3.7500E-01, -3.7500E-01, -3.7500E-01]  [ 3.7500E-01,  0.0000E+00,  0.0000E+00]     4     3     0  [0, 0, 0]
    20  [ 0.0000E+00,  0.0000E+00, -3.7500E-01]  [ 3.7500E-01,  0.0000E+00,  0.0000E+00]     4     2     1  [0, 0, 0]
prtvol = 0, max 20 points are written



 === Kohn-Sham gaps and band edges from IBZ mesh ===
 Direct band gap semiconductor
 Fundamental gap:     0.538 (eV)
   VBM:    -0.269 (eV) at k: [ 0.0000E+00,  0.0000E+00,  0.0000E+00]
   CBM:     0.269 (eV) at k: [ 0.0000E+00,  0.0000E+00,  0.0000E+00]
 Direct gap:         0.538 (eV) at k: [ 0.0000E+00,  0.0000E+00,  0.0000E+00]


 ==== FFT mesh for Green's function ====
  FFT mesh divisions ........................    24   24   24
  Augmented FFT divisions ...................    24   24   24
  FFT algorithm .............................   312
  FFT cache size ............................    16
- FFT uc_batch_size: 4
- FFT sc_batch_size: 4
 ==== Info on the GWR object ====

--- !GWR_params
iteration_state: {dtset: 2, }
gwr_task: G0W0
nband: 480
ntau: 8
ngkpt: [8, 8, 8, ]
ngqpt: [8, 8, 8, ]
chi_algo: supercell
sigma_algo: 'BZ-convolutions'
nkibz: 29
nqibz: 29
inclvkb: 2
q0: [  1.00000000E-05,   2.00000000E-05,   3.00000000E-05, ]
gw_icutcoul: 6
green_mpw: 4405
tchi_mpw: 620
g_ngfft: [24, 24, 24, 24, 24, 24, ]
P gwr_np_kgts: [4, 256, 2, 1, ]
P np_kibz: [
    1, 1, 1, 1, 1, 1, 1, 1, 
    1, 2, 1, 1, 1, 1, 1, 1, 
    2, 1, 1, 1, 1, 1, 1, 2, 
    1, 1, 1, 1, 1, 
]
P np_qibz: [
    1, 1, 1, 1, 1, 1, 1, 1, 
    1, 2, 1, 1, 1, 1, 1, 1, 
    2, 1, 1, 1, 1, 1, 1, 2, 
    1, 1, 1, 1, 1, 
]
min_transition_energy_eV:   1.97885547E-02
max_transition_energy_eV:   1.11010036E+01
eratio:   5.60981018E+02
ft_max_err_t2w_cos:   1.70932186E-02
ft_max_err_w2t_cos:   2.35784917E-03
ft_max_err_t2w_sin:   4.54488943E-01
cosft_duality_error:   4.38337372E-04
Minimax imaginary tau/omega mesh: !Tabular | # tau, weight(tau), omega, weight(omega)
    1 4.49515E-02   1.20869E-01   6.76624E-03   1.41210E-02
    2 2.93070E-01   4.20933E-01   2.41298E-02   2.22993E-02
    3 1.04711E+00   1.21202E+00   5.63601E-02   4.59047E-02
    4 3.10169E+00   3.17886E+00   1.28198E-01   1.07592E-01
    5 8.24146E+00   7.69910E+00   3.05909E-01   2.76849E-01
    6 2.02430E+01   1.75384E+01   7.90921E-01   7.91169E-01
    7 4.69607E+01   3.85759E+01   2.29597E+00   2.62282E+00
    8 1.06601E+02   8.93048E+01   8.18908E+00   1.20698E+01
...


 Computing chi0 head and wings with inclvkb: 2
 Using KS orbitals and KS energies...


 ==== FFT mesh for chi0 head/wings computation ====
  FFT mesh divisions ........................    48   48   48
  Augmented FFT divisions ...................    49   49   48
  FFT algorithm .............................   312
  FFT cache size ............................    16

 Computing diagonal matrix elements of Sigma_x
 Using KS orbitals and KS energies...


 ==== FFT mesh for Sigma_x ====
  FFT mesh divisions ........................    48   48   48
  Augmented FFT divisions ...................    49   49   48
  FFT algorithm .............................   312
  FFT cache size ............................    16


 Building Green's functions from KS orbitals and KS energies...



 Building correlated screening Wc ...

--- !EMACRO_WITHOUT_LOCAL_FIELDS
iteration_state: {dtset: 2, }
'epsilon_{iw, q -> Gamma}(0,0)': !Tabular |
      6.76624448E-03    2.69006863E+01   -5.93905621E-17
      2.41297917E-02    1.96738949E+01    5.81763139E-17
      5.63601145E-02    1.36324215E+01   -2.28065441E-17
      1.28198070E-01    8.16396141E+00    1.09122154E-17
      3.05909410E-01    3.62233210E+00    2.84146467E-18
      7.90921027E-01    1.63896728E+00    3.87437621E-19
      2.29597312E+00    1.14248514E+00   -1.41415880E-20
      8.18907897E+00    1.02392685E+00   -3.56931544E-21
...


--- !EMACRO_WITH_LOCAL_FIELDS
iteration_state: {dtset: 2, }
'epsilon_{iw, q -> Gamma}(0,0)': !Tabular |
      6.76624448E-03    3.91693115E-02    0.00000000E+00
      2.41297917E-02    5.43467291E-02    0.00000000E+00
      5.63601145E-02    7.96583965E-02    0.00000000E+00
      1.28198070E-01    1.33392408E-01    0.00000000E+00
      3.05909410E-01    2.95691550E-01    0.00000000E+00
      7.90921027E-01    6.37351751E-01    0.00000000E+00
      2.29597312E+00    8.92467439E-01    0.00000000E+00
      8.18907897E+00    9.78811204E-01    0.00000000E+00
...



 Building Sigma_c with convolutions in k-space:
================================================================================
 QP results (energies in eV)
 Notations:
     E0: Kohn-Sham energy
     <VxcDFT>: Matrix elements of Vxc[n_val] without non-linear core correction (if any)
     SigX: Matrix elements of Sigma_x
     SigC(E0): Matrix elements of Sigma_c at E0
     Z: Renormalization factor
     E-E0: Difference between the QP and the KS energy.
     E-Eprev: Difference between QP energy at iteration i and i-1
     E: Quasi-particle energy
     Occ(E): Occupancy of QP state
 
 

--- !GWR_SelfEnergy_ee
iteration_state: {dtset: 2, }
kpoint     : [   0.000,    0.000,    0.000, ]
spin       : 1
gwr_scf_iteration: 1
gwr_task   : G0W0
QP_VBM_band: 12
QP_CBM_band: 15
KS_gap     :    0.538
QP_gap     :    0.756
Delta_QP_KS:    0.218
data: !Tabular |
     Band       E0 <VxcDFT>     SigX SigC(E0)        Z     E-E0  E-Eprev        E   Occ(E)
       12   -0.269  -13.352  -15.455    0.820    0.716   -0.918   -0.918   -1.187    2.000
       13   -0.269  -13.352  -15.455    0.820    0.716   -0.918   -0.918   -1.187    2.000
       14   -0.269  -13.352  -15.455    0.820    0.716   -0.918   -0.918   -1.187    2.000
       15    0.269  -13.918  -10.915   -3.997    0.704   -0.700   -0.700   -0.431    0.000
       16    3.475  -10.865   -7.018   -4.345    0.750   -0.384   -0.384    3.092    0.000
       17    3.475  -10.865   -7.018   -4.345    0.750   -0.384   -0.384    3.092    0.000
       18    3.475  -10.865   -7.018   -4.345    0.750   -0.384   -0.384    3.092    0.000
       19    7.346   -8.583   -3.702   -6.789    0.577   -1.231   -1.231    6.115    0.000
       20    9.905  -10.862   -4.715   -5.881    0.785   -0.422   -0.422    9.483    0.000
       21    9.905  -10.862   -4.715   -5.881    0.785   -0.422   -0.422    9.483    0.000
       22   11.322   -8.013   -2.523   -8.205    0.525   -1.521   -1.521    9.801    0.000
       23   11.322   -8.013   -2.523   -8.205    0.525   -1.521   -1.521    9.801    0.000
       24   11.322   -8.013   -2.523   -8.205    0.525   -1.521   -1.521    9.801    0.000
       25   14.305   -6.347   -1.435   -7.162    0.568   -1.291   -1.291   13.014    0.000
       26   25.443  -12.009   -5.246   -6.816    1.011   -5.734   -5.734   19.709    0.000
       27   25.443  -12.009   -5.246   -6.816    1.011   -5.734   -5.734   19.709    0.000
       28   25.443  -12.009   -5.246   -6.816    1.011   -5.734   -5.734   19.709    0.000
...


--- !GWR_SelfEnergy_ee
iteration_state: {dtset: 2, }
kpoint     : [   0.500,    0.500,    0.000, ]
spin       : 1
gwr_scf_iteration: 1
gwr_task   : G0W0
QP_VBM_band: 13
QP_CBM_band: 15
KS_gap     :    4.151
QP_gap     :    4.786
Delta_QP_KS:    0.635
data: !Tabular |
     Band       E0 <VxcDFT>     SigX SigC(E0)        Z     E-E0  E-Eprev        E   Occ(E)
       12   -7.094  -12.011  -16.886    3.872    0.670   -0.429   -0.429   -7.522    2.000
       13   -2.954  -11.736  -15.125    2.098    0.713   -0.914   -0.914   -3.868    2.000
       14   -2.954  -11.736  -15.125    2.098    0.713   -0.914   -0.914   -3.868    2.000
       15    1.197   -9.409   -5.892   -3.886    0.760   -0.279   -0.279    0.918    0.000
       16    1.394  -10.553   -6.927   -4.032    0.747   -0.303   -0.303    1.091    0.000
       17    9.931  -12.500   -6.916   -8.010    0.517   -2.240   -2.240    7.691    0.000
       18    9.931  -12.500   -6.916   -8.010    0.517   -2.240   -2.240    7.691    0.000
       19   10.736  -12.016   -6.707   -8.965    0.292   -3.502   -3.502    7.234    0.000
       20   13.084  -11.588   -5.755   -8.665    0.528   -2.873   -2.873   10.211    0.000
       21   13.188  -11.083   -4.647   -6.926    0.753   -1.955   -1.955   11.233    0.000
       22   13.188  -11.083   -4.647   -6.926    0.753   -1.955   -1.955   11.233    0.000
       23   13.296  -10.741   -4.071   -6.396    0.863   -1.267   -1.267   12.029    0.000
       24   15.163  -10.445   -3.504   -8.023    0.641   -2.380   -2.380   12.783    0.000
       25   19.324   -9.990   -3.138   -7.575    0.545   -7.180   -7.180   12.144    0.000
       26   19.572   -8.834   -2.423   -8.906    0.475   -3.500   -3.500   16.072    0.000
       27   19.572   -8.834   -2.423   -8.906    0.475   -3.500   -3.500   16.072    0.000
...


================================================================================
== DATASET  3 ==================================================================
-   mpi_nproc: 2048, omp_nthreads: -1 (-1 if OMP is not activated)


--- !DatasetInfo
iteration_state: {dtset: 3, }
dimensions: {natom: 2, nkpt: 29, mband: 480, nsppol: 1, nspinor: 1, nspden: 1, mpw: 4405, }
cutoff_energies: {ecut:  45.0, pawecutdg:  -1.0, }
electrons: {nelect:   2.80000000E+01, charge:   0.00000000E+00, occopt:   1.00000000E+00, tsmear:   1.00000000E-02, }
meta: {optdriver: 6, }
...

 mkfilename: getwfk from: ../outdata_gs_DS2_WFK

 mkfilename: getden from: ../outdata_gs_DS1_DEN

 Exchange-correlation functional for the present dataset will be:
  GGA: Perdew-Burke-Ernzerhof functional - ixc=11
 Citation for XC functional:
  J.P.Perdew, K.Burke, M.Ernzerhof, PRL 77, 3865 (1996)

.Using single precision arithmetic; gwpc =  4

- Reading GS density from: ../outdata_gs_DS1_DEN



--------------------------------------------------------------------------------

 Total charge density [el/Bohr^3]
)     Maximum=    2.4085E+00  at reduced coord.    0.2708    0.2708    0.3125
)     Minimum=    5.2503E-05  at reduced coord.    0.0000    0.0000    0.0000
   Integrated=    2.8000E+01
- Reading GS states from WFK file: ../outdata_gs_DS2_WFK
  Mapping kBZ --> kIBZ
 Legend: bz = TS(ibz) + g0 where isym is the index of the symrec operation S and itim is 1 if TR is used.
        BZ                                       IBZ                                       ibz  isym  itim  g0
     1  [ 0.0000E+00,  0.0000E+00,  0.0000E+00]  [ 0.0000E+00,  0.0000E+00,  0.0000E+00]     1     1     0  [0, 0, 0]
     2  [ 1.2500E-01,  0.0000E+00,  0.0000E+00]  [ 1.2500E-01,  0.0000E+00,  0.0000E+00]     2     1     0  [0, 0, 0]
     3  [-1.2500E-01,  0.0000E+00,  0.0000E+00]  [ 1.2500E-01,  0.0000E+00,  0.0000E+00]     2     1     1  [0, 0, 0]
     4  [ 0.0000E+00,  0.0000E+00, -1.2500E-01]  [ 1.2500E-01,  0.0000E+00,  0.0000E+00]     2     2     1  [0, 0, 0]
     5  [ 0.0000E+00,  1.2500E-01,  0.0000E+00]  [ 1.2500E-01,  0.0000E+00,  0.0000E+00]     2     4     0  [0, 0, 0]
     6  [ 1.2500E-01,  1.2500E-01,  1.2500E-01]  [ 1.2500E-01,  0.0000E+00,  0.0000E+00]     2     3     1  [0, 0, 0]
     7  [-1.2500E-01, -1.2500E-01, -1.2500E-01]  [ 1.2500E-01,  0.0000E+00,  0.0000E+00]     2     3     0  [0, 0, 0]
     8  [ 0.0000E+00, -1.2500E-01,  0.0000E+00]  [ 1.2500E-01,  0.0000E+00,  0.0000E+00]     2     4     1  [0, 0, 0]
     9  [ 0.0000E+00,  0.0000E+00,  1.2500E-01]  [ 1.2500E-01,  0.0000E+00,  0.0000E+00]     2     2     0  [0, 0, 0]
    10  [ 2.5000E-01,  0.0000E+00,  0.0000E+00]  [ 2.5000E-01,  0.0000E+00,  0.0000E+00]     3     1     0  [0, 0, 0]
    11  [ 2.5000E-01,  2.5000E-01,  2.5000E-01]  [ 2.5000E-01,  0.0000E+00,  0.0000E+00]     3     3     1  [0, 0, 0]
    12  [ 0.0000E+00,  2.5000E-01,  0.0000E+00]  [ 2.5000E-01,  0.0000E+00,  0.0000E+00]     3     4     0  [0, 0, 0]
    13  [ 0.0000E+00, -2.5000E-01,  0.0000E+00]  [ 2.5000E-01,  0.0000E+00,  0.0000E+00]     3     4     1  [0, 0, 0]
    14  [-2.5000E-01,  0.0000E+00,  0.0000E+00]  [ 2.5000E-01,  0.0000E+00,  0.0000E+00]     3     1     1  [0, 0, 0]
    15  [ 0.0000E+00,  0.0000E+00,  2.5000E-01]  [ 2.5000E-01,  0.0000E+00,  0.0000E+00]     3     2     0  [0, 0, 0]
    16  [ 0.0000E+00,  0.0000E+00, -2.5000E-01]  [ 2.5000E-01,  0.0000E+00,  0.0000E+00]     3     2     1  [0, 0, 0]
    17  [-2.5000E-01, -2.5000E-01, -2.5000E-01]  [ 2.5000E-01,  0.0000E+00,  0.0000E+00]     3     3     0  [0, 0, 0]
    18  [ 3.7500E-01,  0.0000E+00,  0.0000E+00]  [ 3.7500E-01,  0.0000E+00,  0.0000E+00]     4     1     0  [0, 0, 0]
    19  [-3.7500E-01, -3.7500E-01, -3.7500E-01]  [ 3.7500E-01,  0.0000E+00,  0.0000E+00]     4     3     0  [0, 0, 0]
    20  [ 0.0000E+00,  0.0000E+00, -3.7500E-01]  [ 3.7500E-01,  0.0000E+00,  0.0000E+00]     4     2     1  [0, 0, 0]
prtvol = 0, max 20 points are written


  Mapping qBZ --> qIBZ
 Legend: bz = TS(ibz) + g0 where isym is the index of the symrec operation S and itim is 1 if TR is used.
        BZ                                       IBZ                                       ibz  isym  itim  g0
     1  [ 0.0000E+00,  0.0000E+00,  0.0000E+00]  [ 0.0000E+00,  0.0000E+00,  0.0000E+00]     1     1     0  [0, 0, 0]
     2  [ 1.2500E-01,  0.0000E+00,  0.0000E+00]  [ 1.2500E-01,  0.0000E+00,  0.0000E+00]     2     1     0  [0, 0, 0]
     3  [-1.2500E-01,  0.0000E+00,  0.0000E+00]  [ 1.2500E-01,  0.0000E+00,  0.0000E+00]     2     1     1  [0, 0, 0]
     4  [ 0.0000E+00,  0.0000E+00, -1.2500E-01]  [ 1.2500E-01,  0.0000E+00,  0.0000E+00]     2     2     1  [0, 0, 0]
     5  [ 0.0000E+00,  1.2500E-01,  0.0000E+00]  [ 1.2500E-01,  0.0000E+00,  0.0000E+00]     2     4     0  [0, 0, 0]
     6  [ 1.2500E-01,  1.2500E-01,  1.2500E-01]  [ 1.2500E-01,  0.0000E+00,  0.0000E+00]     2     3     1  [0, 0, 0]
     7  [-1.2500E-01, -1.2500E-01, -1.2500E-01]  [ 1.2500E-01,  0.0000E+00,  0.0000E+00]     2     3     0  [0, 0, 0]
     8  [ 0.0000E+00, -1.2500E-01,  0.0000E+00]  [ 1.2500E-01,  0.0000E+00,  0.0000E+00]     2     4     1  [0, 0, 0]
     9  [ 0.0000E+00,  0.0000E+00,  1.2500E-01]  [ 1.2500E-01,  0.0000E+00,  0.0000E+00]     2     2     0  [0, 0, 0]
    10  [ 2.5000E-01,  0.0000E+00,  0.0000E+00]  [ 2.5000E-01,  0.0000E+00,  0.0000E+00]     3     1     0  [0, 0, 0]
    11  [ 2.5000E-01,  2.5000E-01,  2.5000E-01]  [ 2.5000E-01,  0.0000E+00,  0.0000E+00]     3     3     1  [0, 0, 0]
    12  [ 0.0000E+00,  2.5000E-01,  0.0000E+00]  [ 2.5000E-01,  0.0000E+00,  0.0000E+00]     3     4     0  [0, 0, 0]
    13  [ 0.0000E+00, -2.5000E-01,  0.0000E+00]  [ 2.5000E-01,  0.0000E+00,  0.0000E+00]     3     4     1  [0, 0, 0]
    14  [-2.5000E-01,  0.0000E+00,  0.0000E+00]  [ 2.5000E-01,  0.0000E+00,  0.0000E+00]     3     1     1  [0, 0, 0]
    15  [ 0.0000E+00,  0.0000E+00,  2.5000E-01]  [ 2.5000E-01,  0.0000E+00,  0.0000E+00]     3     2     0  [0, 0, 0]
    16  [ 0.0000E+00,  0.0000E+00, -2.5000E-01]  [ 2.5000E-01,  0.0000E+00,  0.0000E+00]     3     2     1  [0, 0, 0]
    17  [-2.5000E-01, -2.5000E-01, -2.5000E-01]  [ 2.5000E-01,  0.0000E+00,  0.0000E+00]     3     3     0  [0, 0, 0]
    18  [ 3.7500E-01,  0.0000E+00,  0.0000E+00]  [ 3.7500E-01,  0.0000E+00,  0.0000E+00]     4     1     0  [0, 0, 0]
    19  [-3.7500E-01, -3.7500E-01, -3.7500E-01]  [ 3.7500E-01,  0.0000E+00,  0.0000E+00]     4     3     0  [0, 0, 0]
    20  [ 0.0000E+00,  0.0000E+00, -3.7500E-01]  [ 3.7500E-01,  0.0000E+00,  0.0000E+00]     4     2     1  [0, 0, 0]
prtvol = 0, max 20 points are written



 === Kohn-Sham gaps and band edges from IBZ mesh ===
 Direct band gap semiconductor
 Fundamental gap:     0.538 (eV)
   VBM:    -0.269 (eV) at k: [ 0.0000E+00,  0.0000E+00,  0.0000E+00]
   CBM:     0.269 (eV) at k: [ 0.0000E+00,  0.0000E+00,  0.0000E+00]
 Direct gap:         0.538 (eV) at k: [ 0.0000E+00,  0.0000E+00,  0.0000E+00]


 ==== FFT mesh for Green's function ====
  FFT mesh divisions ........................    24   24   24
  Augmented FFT divisions ...................    24   24   24
  FFT algorithm .............................   312
  FFT cache size ............................    16
- FFT uc_batch_size: 4
- FFT sc_batch_size: 4
 ==== Info on the GWR object ====

--- !GWR_params
iteration_state: {dtset: 3, }
gwr_task: G0W0
nband: 480
ntau: 10
ngkpt: [8, 8, 8, ]
ngqpt: [8, 8, 8, ]
chi_algo: supercell
sigma_algo: 'BZ-convolutions'
nkibz: 29
nqibz: 29
inclvkb: 2
q0: [  1.00000000E-05,   2.00000000E-05,   3.00000000E-05, ]
gw_icutcoul: 6
green_mpw: 4405
tchi_mpw: 620
g_ngfft: [24, 24, 24, 24, 24, 24, ]
P gwr_np_kgts: [4, 256, 2, 1, ]
P np_kibz: [
    1, 1, 1, 1, 1, 1, 1, 1, 
    1, 2, 1, 1, 1, 1, 1, 1, 
    2, 1, 1, 1, 1, 1, 1, 2, 
    1, 1, 1, 1, 1, 
]
P np_qibz: [
    1, 1, 1, 1, 1, 1, 1, 1, 
    1, 2, 1, 1, 1, 1, 1, 1, 
    2, 1, 1, 1, 1, 1, 1, 2, 
    1, 1, 1, 1, 1, 
]
min_transition_energy_eV:   1.97885547E-02
max_transition_energy_eV:   1.11010036E+01
eratio:   5.60981018E+02
ft_max_err_t2w_cos:   6.49827518E-03
ft_max_err_w2t_cos:   4.17560073E-04
ft_max_err_t2w_sin:   1.39591836E-01
cosft_duality_error:   1.15942151E-03
Minimax imaginary tau/omega mesh: !Tabular | # tau, weight(tau), omega, weight(omega)
    1 3.38953E-02   8.91594E-02   5.77112E-03   1.19028E-02
    2 1.99952E-01   2.59755E-01   1.95999E-02   1.66855E-02
    3 6.12237E-01   6.10429E-01   4.16135E-02   2.90214E-02
    4 1.55730E+00   1.37631E+00   8.25088E-02   5.62648E-02
    5 3.63914E+00   2.97620E+00   1.64729E-01   1.16033E-01
    6 8.03600E+00   6.17500E+00   3.39204E-01   2.51732E-01
    7 1.69738E+01   1.23644E+01   7.29358E-01   5.76855E-01
    8 3.45935E+01   2.41193E+01   1.65753E+00   1.41563E+00
    9 6.87835E+01   4.68580E+01   4.06909E+00   3.87654E+00
    10 1.37325E+02   9.87846E+01   1.18831E+01   1.52442E+01
...


 Computing chi0 head and wings with inclvkb: 2
 Using KS orbitals and KS energies...


 ==== FFT mesh for chi0 head/wings computation ====
  FFT mesh divisions ........................    48   48   48
  Augmented FFT divisions ...................    49   49   48
  FFT algorithm .............................   312
  FFT cache size ............................    16

 Computing diagonal matrix elements of Sigma_x
 Using KS orbitals and KS energies...


 ==== FFT mesh for Sigma_x ====
  FFT mesh divisions ........................    48   48   48
  Augmented FFT divisions ...................    49   49   48
  FFT algorithm .............................   312
  FFT cache size ............................    16


 Building Green's functions from KS orbitals and KS energies...



 Building correlated screening Wc ...

--- !EMACRO_WITHOUT_LOCAL_FIELDS
iteration_state: {dtset: 3, }
'epsilon_{iw, q -> Gamma}(0,0)': !Tabular |
      5.77111847E-03    2.72685165E+01    3.27483882E-17
      1.95999156E-02    2.12673607E+01    5.99308699E-17
      4.16134504E-02    1.56782866E+01    5.97711736E-18
      8.25088428E-02    1.10899744E+01    8.50671218E-18
      1.64729068E-01    6.60878086E+00   -3.93421327E-18
      3.39204230E-01    3.26862884E+00   -3.31432887E-18
      7.29358396E-01    1.72205591E+00   -4.16909465E-20
      1.65753179E+00    1.22058964E+00   -9.49162934E-20
      4.06908860E+00    1.06648982E+00   -3.82556251E-21
      1.18830637E+01    1.01294541E+00    4.89465498E-22
...


--- !EMACRO_WITH_LOCAL_FIELDS
iteration_state: {dtset: 3, }
'epsilon_{iw, q -> Gamma}(0,0)': !Tabular |
      5.77111847E-03    3.86199765E-02    0.00000000E+00
      1.95999156E-02    5.00777327E-02    0.00000000E+00
      4.16134504E-02    6.89370558E-02    0.00000000E+00
      8.25088428E-02    9.82576534E-02    0.00000000E+00
      1.64729068E-01    1.64304316E-01    0.00000000E+00
      3.39204230E-01    3.26774687E-01    0.00000000E+00
      7.29358396E-01    6.07809126E-01    0.00000000E+00
      1.65753179E+00    8.41230452E-01    0.00000000E+00
      4.06908860E+00    9.46318030E-01    0.00000000E+00
      1.18830637E+01    9.88011777E-01    0.00000000E+00
...



 Building Sigma_c with convolutions in k-space:
================================================================================
 QP results (energies in eV)
 Notations:
     E0: Kohn-Sham energy
     <VxcDFT>: Matrix elements of Vxc[n_val] without non-linear core correction (if any)
     SigX: Matrix elements of Sigma_x
     SigC(E0): Matrix elements of Sigma_c at E0
     Z: Renormalization factor
     E-E0: Difference between the QP and the KS energy.
     E-Eprev: Difference between QP energy at iteration i and i-1
     E: Quasi-particle energy
     Occ(E): Occupancy of QP state
 
 

--- !GWR_SelfEnergy_ee
iteration_state: {dtset: 3, }
kpoint     : [   0.000,    0.000,    0.000, ]
spin       : 1
gwr_scf_iteration: 1
gwr_task   : G0W0
QP_VBM_band: 12
QP_CBM_band: 15
KS_gap     :    0.538
QP_gap     :    0.784
Delta_QP_KS:    0.245
data: !Tabular |
     Band       E0 <VxcDFT>     SigX SigC(E0)        Z     E-E0  E-Eprev        E   Occ(E)
       12   -0.269  -13.352  -15.455    0.803    0.755   -0.981   -0.981   -1.251    2.000
       13   -0.269  -13.352  -15.455    0.803    0.755   -0.981   -0.981   -1.251    2.000
       14   -0.269  -13.352  -15.455    0.803    0.755   -0.981   -0.981   -1.251    2.000
       15    0.269  -13.918  -10.915   -3.968    0.762   -0.736   -0.736   -0.467    0.000
       16    3.475  -10.865   -7.018   -4.159    0.775   -0.243   -0.243    3.232    0.000
       17    3.475  -10.865   -7.018   -4.159    0.775   -0.243   -0.243    3.232    0.000
       18    3.475  -10.865   -7.018   -4.159    0.775   -0.243   -0.243    3.232    0.000
       19    7.346   -8.583   -3.702   -5.631    0.751   -0.569   -0.569    6.777    0.000
       20    9.905  -10.862   -4.715   -5.516    0.781    0.474    0.474   10.379    0.000
       21    9.905  -10.862   -4.715   -5.516    0.781    0.474    0.474   10.379    0.000
       22   11.322   -8.013   -2.523   -5.846    0.757   -0.290   -0.290   11.032    0.000
       23   11.322   -8.013   -2.523   -5.846    0.757   -0.290   -0.290   11.032    0.000
       24   11.322   -8.013   -2.523   -5.846    0.757   -0.290   -0.290   11.032    0.000
       25   14.305   -6.347   -1.435   -5.652    0.767   -0.588   -0.588   13.717    0.000
       26   25.443  -12.009   -5.246   -6.634    0.875   -0.809   -0.809   24.635    0.000
       27   25.443  -12.009   -5.246   -6.634    0.875   -0.809   -0.809   24.635    0.000
       28   25.443  -12.009   -5.246   -6.634    0.875   -0.809   -0.809   24.635    0.000
...


--- !GWR_SelfEnergy_ee
iteration_state: {dtset: 3, }
kpoint     : [   0.500,    0.500,    0.000, ]
spin       : 1
gwr_scf_iteration: 1
gwr_task   : G0W0
QP_VBM_band: 13
QP_CBM_band: 15
KS_gap     :    4.151
QP_gap     :    5.019
Delta_QP_KS:    0.868
data: !Tabular |
     Band       E0 <VxcDFT>     SigX SigC(E0)        Z     E-E0  E-Eprev        E   Occ(E)
       12   -7.094  -12.011  -16.886    3.394    0.701   -1.031   -1.031   -8.124    2.000
       13   -2.954  -11.736  -15.125    1.904    0.750   -1.112   -1.112   -4.066    2.000
       14   -2.954  -11.736  -15.125    1.904    0.750   -1.112   -1.112   -4.066    2.000
       15    1.197   -9.409   -5.892   -3.827    0.787   -0.244   -0.244    0.954    0.000
       16    1.394  -10.553   -6.927   -3.951    0.779   -0.253   -0.253    1.141    0.000
       17    9.931  -12.500   -6.916   -6.282    0.730   -0.556   -0.556    9.375    0.000
       18    9.931  -12.500   -6.916   -6.282    0.730   -0.556   -0.556    9.375    0.000
       19   10.736  -12.016   -6.707   -6.178    0.754   -0.720   -0.720   10.016    0.000
       20   13.084  -11.588   -5.755   -6.439    0.757   -0.524   -0.524   12.560    0.000
       21   13.188  -11.083   -4.647   -6.082    0.776    0.217    0.217   13.405    0.000
       22   13.188  -11.083   -4.647   -6.082    0.776    0.217    0.217   13.405    0.000
       23   13.296  -10.741   -4.071   -6.217    0.769    0.302    0.302   13.597    0.000
       24   15.163  -10.445   -3.504   -6.530    0.769    0.225    0.225   15.388    0.000
       25   19.324   -9.990   -3.138   -6.406    0.810    0.192    0.192   19.516    0.000
       26   19.572   -8.834   -2.423   -6.649    0.766   -0.319   -0.319   19.253    0.000
       27   19.572   -8.834   -2.423   -6.649    0.766   -0.319   -0.319   19.253    0.000
...


================================================================================
== DATASET  4 ==================================================================
-   mpi_nproc: 2048, omp_nthreads: -1 (-1 if OMP is not activated)


--- !DatasetInfo
iteration_state: {dtset: 4, }
dimensions: {natom: 2, nkpt: 29, mband: 480, nsppol: 1, nspinor: 1, nspden: 1, mpw: 4405, }
cutoff_energies: {ecut:  45.0, pawecutdg:  -1.0, }
electrons: {nelect:   2.80000000E+01, charge:   0.00000000E+00, occopt:   1.00000000E+00, tsmear:   1.00000000E-02, }
meta: {optdriver: 6, }
...

 mkfilename: getwfk from: ../outdata_gs_DS2_WFK

 mkfilename: getden from: ../outdata_gs_DS1_DEN

 Exchange-correlation functional for the present dataset will be:
  GGA: Perdew-Burke-Ernzerhof functional - ixc=11
 Citation for XC functional:
  J.P.Perdew, K.Burke, M.Ernzerhof, PRL 77, 3865 (1996)

.Using single precision arithmetic; gwpc =  4

- Reading GS density from: ../outdata_gs_DS1_DEN



--------------------------------------------------------------------------------

 Total charge density [el/Bohr^3]
[...]
                       0.000000  0.000000  0.000000  0.000000  0.000000  0.000000
                       0.000000  0.000000  0.000000  0.000000  0.000000  0.000000
                       0.000000  0.000000  0.000000  0.000000  0.000000  0.000000
                       0.000000  0.000000  0.000000  0.000000  0.000000  0.000000
                       0.000000  0.000000  0.000000  0.000000  0.000000  0.000000
                       0.000000  0.000000  0.000000  0.000000  0.000000  0.000000
                       0.000000  0.000000  0.000000  0.000000  0.000000  0.000000
                       0.000000  0.000000  0.000000  0.000000  0.000000  0.000000
                       0.000000  0.000000  0.000000  0.000000  0.000000  0.000000
                       0.000000  0.000000  0.000000  0.000000  0.000000  0.000000
                       0.000000  0.000000  0.000000  0.000000  0.000000  0.000000
                       0.000000  0.000000  0.000000  0.000000  0.000000  0.000000
                       0.000000  0.000000  0.000000  0.000000  0.000000  0.000000
                       0.000000  0.000000  0.000000  0.000000  0.000000  0.000000
                       0.000000  0.000000  0.000000  0.000000  0.000000  0.000000
                       0.000000  0.000000  0.000000  0.000000  0.000000  0.000000
                       0.000000  0.000000  0.000000  0.000000  0.000000  0.000000
                       0.000000  0.000000  0.000000  0.000000  0.000000  0.000000
                       0.000000  0.000000  0.000000  0.000000  0.000000  0.000000
                       0.000000  0.000000  0.000000  0.000000  0.000000  0.000000
                       0.000000  0.000000  0.000000  0.000000  0.000000  0.000000
                       0.000000  0.000000  0.000000  0.000000  0.000000  0.000000
                       0.000000  0.000000  0.000000  0.000000  0.000000  0.000000
                       0.000000  0.000000  0.000000  0.000000  0.000000  0.000000
                       0.000000  0.000000  0.000000  0.000000  0.000000  0.000000
                       0.000000  0.000000  0.000000  0.000000  0.000000  0.000000
                       0.000000  0.000000  0.000000  0.000000  0.000000  0.000000
                       0.000000  0.000000  0.000000  0.000000  0.000000  0.000000
                       0.000000  0.000000  0.000000  0.000000  0.000000  0.000000
                       0.000000  0.000000  0.000000  0.000000  0.000000  0.000000
                       0.000000  0.000000  0.000000  0.000000  0.000000  0.000000
                       0.000000  0.000000  0.000000  0.000000  0.000000  0.000000
        optdriver           6
            rprim      0.0000000000E+00  5.0000000000E-01  5.0000000000E-01
                       5.0000000000E-01  0.0000000000E+00  5.0000000000E-01
                       5.0000000000E-01  5.0000000000E-01  0.0000000000E+00
          spgroup         216
           strten1     0.0000000000E+00  0.0000000000E+00  0.0000000000E+00
                       0.0000000000E+00  0.0000000000E+00  0.0000000000E+00
           strten2     0.0000000000E+00  0.0000000000E+00  0.0000000000E+00
                       0.0000000000E+00  0.0000000000E+00  0.0000000000E+00
           strten3     0.0000000000E+00  0.0000000000E+00  0.0000000000E+00
                       0.0000000000E+00  0.0000000000E+00  0.0000000000E+00
           strten4     0.0000000000E+00  0.0000000000E+00  0.0000000000E+00
                       0.0000000000E+00  0.0000000000E+00  0.0000000000E+00
           strten5     0.0000000000E+00  0.0000000000E+00  0.0000000000E+00
                       0.0000000000E+00  0.0000000000E+00  0.0000000000E+00
           strten6     0.0000000000E+00  0.0000000000E+00  0.0000000000E+00
                       0.0000000000E+00  0.0000000000E+00  0.0000000000E+00
           strten7     0.0000000000E+00  0.0000000000E+00  0.0000000000E+00
                       0.0000000000E+00  0.0000000000E+00  0.0000000000E+00
           strten8     0.0000000000E+00  0.0000000000E+00  0.0000000000E+00
                       0.0000000000E+00  0.0000000000E+00  0.0000000000E+00
           strten9     0.0000000000E+00  0.0000000000E+00  0.0000000000E+00
                       0.0000000000E+00  0.0000000000E+00  0.0000000000E+00
           strten10    0.0000000000E+00  0.0000000000E+00  0.0000000000E+00
                       0.0000000000E+00  0.0000000000E+00  0.0000000000E+00
           strten11    0.0000000000E+00  0.0000000000E+00  0.0000000000E+00
                       0.0000000000E+00  0.0000000000E+00  0.0000000000E+00
           strten12    0.0000000000E+00  0.0000000000E+00  0.0000000000E+00
                       0.0000000000E+00  0.0000000000E+00  0.0000000000E+00
           strten13    0.0000000000E+00  0.0000000000E+00  0.0000000000E+00
                       0.0000000000E+00  0.0000000000E+00  0.0000000000E+00
           strten14    0.0000000000E+00  0.0000000000E+00  0.0000000000E+00
                       0.0000000000E+00  0.0000000000E+00  0.0000000000E+00
           strten15    0.0000000000E+00  0.0000000000E+00  0.0000000000E+00
                       0.0000000000E+00  0.0000000000E+00  0.0000000000E+00
           symrel      1  0  0   0  1  0   0  0  1       0 -1  1   0 -1  0   1 -1  0
                      -1  0  0  -1  0  1  -1  1  0       0  1 -1   1  0 -1   0  0 -1
                      -1  0  0  -1  1  0  -1  0  1       0 -1  1   1 -1  0   0 -1  0
                       1  0  0   0  0  1   0  1  0       0  1 -1   0  0 -1   1  0 -1
                      -1  0  1  -1  1  0  -1  0  0       0 -1  0   1 -1  0   0 -1  1
                       1  0 -1   0  0 -1   0  1 -1       0  1  0   0  0  1   1  0  0
                       1  0 -1   0  1 -1   0  0 -1       0 -1  0   0 -1  1   1 -1  0
                      -1  0  1  -1  0  0  -1  1  0       0  1  0   1  0  0   0  0  1
                       0  0 -1   0  1 -1   1  0 -1       1 -1  0   0 -1  1   0 -1  0
                       0  0  1   1  0  0   0  1  0      -1  1  0  -1  0  0  -1  0  1
                       0  0  1   0  1  0   1  0  0       1 -1  0   0 -1  0   0 -1  1
                       0  0 -1   1  0 -1   0  1 -1      -1  1  0  -1  0  1  -1  0  0
           timopt          -1
            typat      1  2
              wtk        0.00195    0.01563    0.01563    0.01563    0.00781    0.01172
                         0.04688    0.04688    0.04688    0.04688    0.04688    0.02344
                         0.01172    0.04688    0.04688    0.04688    0.02344    0.01172
                         0.04688    0.02344    0.00586    0.04688    0.09375    0.04688
                         0.04688    0.09375    0.04688    0.02344    0.01172
           xangst      0.0000000000E+00  0.0000000000E+00  0.0000000000E+00
                       1.4120000000E+00  1.4120000000E+00  1.4120000000E+00
            xcart      0.0000000000E+00  0.0000000000E+00  0.0000000000E+00
                       2.6682932996E+00  2.6682932996E+00  2.6682932996E+00
             xred      0.0000000000E+00  0.0000000000E+00  0.0000000000E+00
                       2.5000000000E-01  2.5000000000E-01  2.5000000000E-01
            znucl       31.00000   33.00000

================================================================================

 Test the timer : 
  a combined call timab(*,1,tsec) + timab(*,2,tsec) is 
- CPU time =    6.0727E-07 sec,    Wall time =    6.0447E-07 sec

- Total cpu        time (s,m,h):   19161529.0   319358.82   5322.647
- Total wall clock time (s,m,h):   19403898.7   323398.31   5389.972
-
- For major independent code sections, cpu and wall times (sec),
-  as well as % of the time and number of calls for node 0
-
-<BEGIN_TIMER mpi_nprocs = 2048, omp_nthreads = 1, mpi_rank = 0>
- cpu_time =         9337.1, wall_time =         9474.6
-
- routine                            cpu     %          wall     %      number of calls Gflops    Speedup Efficacity
-                                                                        (-1=no count)
- gwr_build_tchi                 7409.349   0.0      7414.819   0.0             15      -1.00        1.00       1.00
- gwr_build_sigmac               1360.637   0.0      1362.762   0.0             15      -1.00        1.00       1.00
- gwr_gk_to_scbox                 436.803   0.0       437.315   0.0           2100      -1.00        1.00       1.00
- gsph2box                        316.767   0.0       317.764   0.0        2073600      -1.00        1.00       1.00
- gwr_build_head_wings            257.337   0.0       257.501   0.0             15      -1.00        1.00       1.00
- gwr_build_green                 170.068   0.0       170.186   0.0             15      -1.00        1.00       1.00
- gwr_build_wc                     44.029   0.0        44.096   0.0             15      -1.00        1.00       1.00
- gwr_init                         36.114   0.0        36.510   0.0             30      -1.00        0.99       0.99
- gwr_read_ugb_from_wfk            21.564   0.0        22.204   0.0             15      -1.00        0.97       0.97
- others (146)                      5.439   0.0       130.051   0.0             -1      -1.00        0.04       0.04
-<END_TIMER>
-
- subtotal                      10058.107   0.1     10193.207   0.1                                  0.99       0.99

- For major independent code sections, cpu and wall times (sec),
- as well as % of the total time and number of calls 

-<BEGIN_TIMER mpi_nprocs = 2048, omp_nthreads = 1, mpi_rank = world>
- cpu_time =    19161529.0, wall_time =    19403898.7
-
- routine                            cpu     %          wall     %      number of calls Gflops    Speedup Efficacity
-                                                                        (-1=no count)
- gwr_build_tchi             15225054.401  79.5  15226467.469  78.5          30720      -1.00        1.00       1.00
- gwr_build_sigmac            2797279.143  14.6   2797519.534  14.4          30720      -1.00        1.00       1.00
- gwr_gk_to_scbox              995898.560   5.2    996000.034   5.1        4300800      -1.00        1.00       1.00
- gsph2box                     702860.133   3.7    704565.907   3.6      -48234496      -1.00        1.00       1.00
- gwr_build_head_wings         502129.677   2.6    502277.285   2.6          30720      -1.00        1.00       1.00
- gwr_build_green              274977.671   1.4    275003.499   1.4          30720      -1.00        1.00       1.00
- gwr_build_wc                 107619.931   0.6    107652.688   0.6          30720      -1.00        1.00       1.00
- gwr_init                      73468.364   0.4     73998.945   0.4          61440      -1.00        0.99       0.99
- gwr_read_ugb_from_wfk         65789.230   0.3     70566.356   0.4          30720      -1.00        0.93       0.93
- pspini                         6419.417   0.0    241396.153   1.2          30720      -1.00        0.03       0.03
- kpgsph                         3429.478   0.0      3423.610   0.0      135567795      -1.00        1.00       1.00
- xc:pot/=fourdp                 1917.258   0.0      1918.360   0.0          61440      -1.00        1.00       1.00
- fourdp                         1056.287   0.0      1096.413   0.0         583680      -1.00        0.96       0.96
- wfd_read_wfk                    982.701   0.0       986.419   0.0          30720      -1.00        1.00       1.00
- invars2                         618.887   0.0       618.971   0.0          30720      -1.00        1.00       1.00
- abinit(2)                       361.854   0.0       365.238   0.0           2048      -1.00        0.99       0.99
- ewald                           352.073   0.0       352.213   0.0          30720      -1.00        1.00       1.00
- timing timab                    237.654   0.0       237.655   0.0          28672      -1.00        1.00       1.00
- mkffnl                          236.831   0.0       236.440   0.0         222720      -1.00        1.00       1.00
- mkcore                          227.003   0.0       227.110   0.0          30720      -1.00        1.00       1.00
- others (135)                      1.511   0.0         1.545   0.0             -1      -1.00        0.98       0.98
-<END_TIMER>

- subtotal                   20760918.064 108.3  21004911.845 108.3                                  0.99       0.99

 Partitioning of abinit
- abinit                     19161529.036 100.0  19403898.744 100.0           2048                   0.99       0.99
 
- driver                     19159572.856 100.0  19401874.571 100.0           2048                   0.99       0.99

- subtotal                   19161529.036 100.0  19403898.744 100.0                                  0.99       0.99

 Partitioning of driver
- driver                     19159572.856 100.0  19401874.571 100.0           2048                   0.99       0.99
 
- (other)                    19159400.308 100.0  19401615.866 100.0             -1                   0.99       0.99

- subtotal                   19159572.856 100.0  19401874.571 100.0                                  0.99       0.99

 Partitioning of  fourdp (upwards partitioning)
- fourdp                         1056.287   0.0      1096.413   0.0         583680                   0.96       0.96
 

- subtotal                       1056.287   0.0      1096.413   0.0                                  0.96       0.96
-
-Synchronisation (=leave_test) and MPI calls 
- communic.MPI                     21.127   0.0        21.776   0.0           2048                   0.97       0.97
-
- subtotal                          0.000   0.0         0.000   0.0                                  0.00       0.00

 Additional information
- timana(1)                         2.816   0.0         2.873   0.0           2048                   0.98       0.98
- total timab                    2854.944   0.0      2854.955   0.0      492240395                   1.00       1.00
- xc:fourdp                       688.049   0.0       687.226   0.0         491520                   1.00       1.00
- read_rho                      15318.765   0.1     15322.439   0.1          30720                   1.00       1.00

 timana : in multi dataset mode, the more detailed analysis is not done.

================================================================================

 Suggested references for the acknowledgment of ABINIT usage.

 The users of ABINIT have little formal obligations with respect to the ABINIT group
 (those specified in the GNU General Public License, http://www.gnu.org/copyleft/gpl.txt).
 However, it is common practice in the scientific literature,
 to acknowledge the efforts of people that have made the research possible.
 In this spirit, please find below suggested citations of work written by ABINIT developers,
 corresponding to implementations inside of ABINIT that you have used in the present run.
 Note also that it will be of great value to readers of publications presenting these results,
 to read papers enabling them to understand the theoretical formalism and details
 of the ABINIT implementation.
 For information on why they are suggested, see also https://docs.abinit.org/theory/acknowledgments.
-
- [1] The Abinit project: Impact, environment and recent developments.
- Computer Phys. Comm. 248, 107042 (2020).
- X.Gonze, B. Amadon, G. Antonius, F.Arnardi, L.Baguet, J.-M.Beuken,
- J.Bieder, F.Bottin, J.Bouchet, E.Bousquet, N.Brouwer, F.Bruneval,
- G.Brunin, T.Cavignac, J.-B. Charraud, Wei Chen, M.Cote, S.Cottenier,
- J.Denier, G.Geneste, Ph.Ghosez, M.Giantomassi, Y.Gillet, O.Gingras,
- D.R.Hamann, G.Hautier, Xu He, N.Helbig, N.Holzwarth, Y.Jia, F.Jollet,
- W.Lafargue-Dit-Hauret, K.Lejaeghere, M.A.L.Marques, A.Martin, C.Martins,
- H.P.C. Miranda, F.Naccarato, K. Persson, G.Petretto, V.Planes, Y.Pouillon,
- S.Prokhorenko, F.Ricci, G.-M.Rignanese, A.H.Romero, M.M.Schmitt, M.Torrent,
- M.J.van Setten, B.Van Troeye, M.J.Verstraete, G.Zerah and J.W.Zwanzig
- Comment: the fifth generic paper describing the ABINIT project.
- Note that a version of this paper, that is not formatted for Computer Phys. Comm. 
- is available at https://www.abinit.org/sites/default/files/ABINIT20.pdf .
- The licence allows the authors to put it on the Web.
- DOI and bibtex: see https://docs.abinit.org/theory/bibliography/#gonze2020
-
- [2] Optimized norm-conserving Vanderbilt pseudopotentials.
- D.R. Hamann, Phys. Rev. B 88, 085117 (2013).
- Comment: Some pseudopotential generated using the ONCVPSP code were used.
- DOI and bibtex: see https://docs.abinit.org/theory/bibliography/#hamann2013
-
- [3] ABINIT: Overview, and focus on selected capabilities
- J. Chem. Phys. 152, 124102 (2020).
- A. Romero, D.C. Allan, B. Amadon, G. Antonius, T. Applencourt, L.Baguet,
- J.Bieder, F.Bottin, J.Bouchet, E.Bousquet, F.Bruneval,
- G.Brunin, D.Caliste, M.Cote,
- J.Denier, C. Dreyer, Ph.Ghosez, M.Giantomassi, Y.Gillet, O.Gingras,
- D.R.Hamann, G.Hautier, F.Jollet, G. Jomard,
- A.Martin, 
- H.P.C. Miranda, F.Naccarato, G.Petretto, N.A. Pike, V.Planes,
- S.Prokhorenko, T. Rangel, F.Ricci, G.-M.Rignanese, M.Royo, M.Stengel, M.Torrent,
- M.J.van Setten, B.Van Troeye, M.J.Verstraete, J.Wiktor, J.W.Zwanziger, and X.Gonze.
- Comment: a global overview of ABINIT, with focus on selected capabilities .
- Note that a version of this paper, that is not formatted for J. Chem. Phys 
- is available at https://www.abinit.org/sites/default/files/ABINIT20_JPC.pdf .
- The licence allows the authors to put it on the Web.
- DOI and bibtex: see https://docs.abinit.org/theory/bibliography/#romero2020
-
- [4] Recent developments in the ABINIT software package.
- Computer Phys. Comm. 205, 106 (2016).
- X.Gonze, F.Jollet, F.Abreu Araujo, D.Adams, B.Amadon, T.Applencourt,
- C.Audouze, J.-M.Beuken, J.Bieder, A.Bokhanchuk, E.Bousquet, F.Bruneval
- D.Caliste, M.Cote, F.Dahm, F.Da Pieve, M.Delaveau, M.Di Gennaro,
- B.Dorado, C.Espejo, G.Geneste, L.Genovese, A.Gerossier, M.Giantomassi,
- Y.Gillet, D.R.Hamann, L.He, G.Jomard, J.Laflamme Janssen, S.Le Roux,
- A.Levitt, A.Lherbier, F.Liu, I.Lukacevic, A.Martin, C.Martins,
- M.J.T.Oliveira, S.Ponce, Y.Pouillon, T.Rangel, G.-M.Rignanese,
- A.H.Romero, B.Rousseau, O.Rubel, A.A.Shukri, M.Stankovski, M.Torrent,
- M.J.Van Setten, B.Van Troeye, M.J.Verstraete, D.Waroquier, J.Wiktor,
- B.Xu, A.Zhou, J.W.Zwanziger.
- Comment: the fourth generic paper describing the ABINIT project.
- Note that a version of this paper, that is not formatted for Computer Phys. Comm. 
- is available at https://www.abinit.org/sites/default/files/ABINIT16.pdf .
- The licence allows the authors to put it on the Web.
- DOI and bibtex: see https://docs.abinit.org/theory/bibliography/#gonze2016
-
- And optionally:
-
- [5] ABINIT: First-principles approach of materials and nanosystem properties.
- Computer Phys. Comm. 180, 2582-2615 (2009).
- X. Gonze, B. Amadon, P.-M. Anglade, J.-M. Beuken, F. Bottin, P. Boulanger, F. Bruneval,
- D. Caliste, R. Caracas, M. Cote, T. Deutsch, L. Genovese, Ph. Ghosez, M. Giantomassi
- S. Goedecker, D.R. Hamann, P. Hermet, F. Jollet, G. Jomard, S. Leroux, M. Mancini, S. Mazevet,
- M.J.T. Oliveira, G. Onida, Y. Pouillon, T. Rangel, G.-M. Rignanese, D. Sangalli, R. Shaltaf,
- M. Torrent, M.J. Verstraete, G. Zerah, J.W. Zwanziger
- Comment: the third generic paper describing the ABINIT project.
- Note that a version of this paper, that is not formatted for Computer Phys. Comm. 
- is available at https://www.abinit.org/sites/default/files/ABINIT_CPC_v10.pdf .
- The licence allows the authors to put it on the Web.
- DOI and bibtex: see https://docs.abinit.org/theory/bibliography/#gonze2009
-
- Proc.   0 individual time (sec): cpu=       9337.1  wall=       9474.6

================================================================================

 Calculation completed.
.Delivered   0 WARNINGs and   0 COMMENTs to log file.
+Overall time at end (sec) : cpu=   19161628.6  wall=   19404005.9
