
.Version 9.9.2 of ABINIT 
.(MPI version, prepared for a x86_64_linux_gnu11.2 computer) 

.Copyright (C) 1998-2022 ABINIT group . 
 ABINIT comes with ABSOLUTELY NO WARRANTY.
 It is free software, and you are welcome to redistribute it
 under certain conditions (GNU General Public License,
 see ~abinit/COPYING or http://www.gnu.org/copyleft/gpl.txt).

 ABINIT is a project of the Universite Catholique de Louvain,
 Corning Inc. and other collaborators, see ~abinit/doc/developers/contributors.txt .
 Please read https://docs.abinit.org/theory/acknowledgments for suggested
 acknowledgments of the ABINIT effort.
 For more information, see https://www.abinit.org .

.Starting date : Sat 11 Feb 2023.
- ( at 21h40 )
  
- input  file    -> run.abi
- output file    -> run.abo
- root for input  files -> ../indata_ac
- root for output files -> outdata_ac


 DATASET    1 : space group Fd -3 m (#227); Bravais cF (face-center cubic)
================================================================================
 Values of the parameters that define the memory need for DATASET  1.
     intxc =       0    ionmov =       0      iscf =       7    lmnmax =       6
     lnmax =       6     mgfft =      30  mpssoang =       3    mqgrid =    3001
     natom =       2  nloc_mem =       1    nspden =       1   nspinor =       1
    nsppol =       1      nsym =      48    n1xccc =    2501    ntypat =       1
    occopt =       1   xclevel =       2
-    mband =         300        mffmem =           1         mkmem =           1
       mpw =         995          nfft =       27000          nkpt =          29
================================================================================
P This job should need less than                      17.224 Mbytes of memory.
  Rough estimation (10% accuracy) of disk space for files :
_ WF disk file :    132.090 Mbytes ; DEN or POT disk file :      0.208 Mbytes.
================================================================================


 DATASET    2 : space group Fd -3 m (#227); Bravais cF (face-center cubic)
================================================================================
 Values of the parameters that define the memory need for DATASET  2.
     intxc =       0    ionmov =       0      iscf =       7    lmnmax =       6
     lnmax =       6     mgfft =      30  mpssoang =       3    mqgrid =    3001
     natom =       2  nloc_mem =       1    nspden =       1   nspinor =       1
    nsppol =       1      nsym =      48    n1xccc =    2501    ntypat =       1
    occopt =       1   xclevel =       2
-    mband =         300        mffmem =           1         mkmem =           1
       mpw =         995          nfft =       27000          nkpt =          29
================================================================================
P This job should need less than                      17.224 Mbytes of memory.
  Rough estimation (10% accuracy) of disk space for files :
_ WF disk file :    132.090 Mbytes ; DEN or POT disk file :      0.208 Mbytes.
================================================================================

--------------------------------------------------------------------------------
------------- Echo of variables that govern the present computation ------------
--------------------------------------------------------------------------------
-
- outvars: echo of selected default values                                      
-   iomode0 =  0 , fftalg0 =312 , wfoptalg0 =  0
-
- outvars: echo of global parameters not present in the input file              
-  max_nthreads =    0
-
 -outvars: echo values of preprocessed input variables --------
            acell      1.0260000000E+01  1.0260000000E+01  1.0260000000E+01 Bohr
              amu      2.80855000E+01
             bdgw           1       5       1       5
           diemac      1.20000000E+01
             ecut      1.80000000E+01 Hartree
          ecuteps      1.20000000E+01 Hartree
         ecutsigx      3.60000000E+01 Hartree
          ecutwfn      1.80000000E+01 Hartree
-          fftalg         312
           getscr1          0
           getscr2         -1
           istwfk        1    0    0    0    1    0    0    0    0    0
                         0    0    0    0    0    0    0    0    0    0
                         1    0    0    0    0    0    0    0    0
              ixc          11
           jdtset        1    2
              kpt      0.00000000E+00  0.00000000E+00  0.00000000E+00
                       1.25000000E-01  0.00000000E+00  0.00000000E+00
                       2.50000000E-01  0.00000000E+00  0.00000000E+00
                       3.75000000E-01  0.00000000E+00  0.00000000E+00
                       5.00000000E-01  0.00000000E+00  0.00000000E+00
                       1.25000000E-01  1.25000000E-01  0.00000000E+00
                       2.50000000E-01  1.25000000E-01  0.00000000E+00
                       3.75000000E-01  1.25000000E-01  0.00000000E+00
                       5.00000000E-01  1.25000000E-01  0.00000000E+00
                      -3.75000000E-01  1.25000000E-01  0.00000000E+00
                      -2.50000000E-01  1.25000000E-01  0.00000000E+00
                      -1.25000000E-01  1.25000000E-01  0.00000000E+00
                       2.50000000E-01  2.50000000E-01  0.00000000E+00
                       3.75000000E-01  2.50000000E-01  0.00000000E+00
                       5.00000000E-01  2.50000000E-01  0.00000000E+00
                      -3.75000000E-01  2.50000000E-01  0.00000000E+00
                      -2.50000000E-01  2.50000000E-01  0.00000000E+00
                       3.75000000E-01  3.75000000E-01  0.00000000E+00
                       5.00000000E-01  3.75000000E-01  0.00000000E+00
                      -3.75000000E-01  3.75000000E-01  0.00000000E+00
                       5.00000000E-01  5.00000000E-01  0.00000000E+00
                       3.75000000E-01  2.50000000E-01  1.25000000E-01
                       5.00000000E-01  2.50000000E-01  1.25000000E-01
                      -3.75000000E-01  2.50000000E-01  1.25000000E-01
                       5.00000000E-01  3.75000000E-01  1.25000000E-01
                      -3.75000000E-01  3.75000000E-01  1.25000000E-01
                      -2.50000000E-01  3.75000000E-01  1.25000000E-01
                      -3.75000000E-01  5.00000000E-01  1.25000000E-01
                      -2.50000000E-01  5.00000000E-01  2.50000000E-01
            kptgw      0.00000000E+00  0.00000000E+00  0.00000000E+00
                       5.00000000E-01  5.00000000E-01  0.00000000E+00
         kptrlatt        8    0    0      0    8    0      0    0    8
          kptrlen      5.80393246E+01
P           mkmem           1
            natom           2
            nband         300
           ndtset           2
            ngfft          30      30      30
             nkpt          29
           nkptgw           2
           npweps         531
          npwsigx        2733
           npwwfn         941
            nstep          50
             nsym          48
           ntypat           1
              occ      2.000000  2.000000  2.000000  2.000000  0.000000  0.000000
                       0.000000  0.000000  0.000000  0.000000  0.000000  0.000000
                       0.000000  0.000000  0.000000  0.000000  0.000000  0.000000
                       0.000000  0.000000  0.000000  0.000000  0.000000  0.000000
                       0.000000  0.000000  0.000000  0.000000  0.000000  0.000000
                       0.000000  0.000000  0.000000  0.000000  0.000000  0.000000
                       0.000000  0.000000  0.000000  0.000000  0.000000  0.000000
                       0.000000  0.000000  0.000000  0.000000  0.000000  0.000000
                       0.000000  0.000000  0.000000  0.000000  0.000000  0.000000
                       0.000000  0.000000  0.000000  0.000000  0.000000  0.000000
                       0.000000  0.000000  0.000000  0.000000  0.000000  0.000000
                       0.000000  0.000000  0.000000  0.000000  0.000000  0.000000
                       0.000000  0.000000  0.000000  0.000000  0.000000  0.000000
                       0.000000  0.000000  0.000000  0.000000  0.000000  0.000000
                       0.000000  0.000000  0.000000  0.000000  0.000000  0.000000
                       0.000000  0.000000  0.000000  0.000000  0.000000  0.000000
                       0.000000  0.000000  0.000000  0.000000  0.000000  0.000000
                       0.000000  0.000000  0.000000  0.000000  0.000000  0.000000
                       0.000000  0.000000  0.000000  0.000000  0.000000  0.000000
                       0.000000  0.000000  0.000000  0.000000  0.000000  0.000000
                       0.000000  0.000000  0.000000  0.000000  0.000000  0.000000
                       0.000000  0.000000  0.000000  0.000000  0.000000  0.000000
                       0.000000  0.000000  0.000000  0.000000  0.000000  0.000000
                       0.000000  0.000000  0.000000  0.000000  0.000000  0.000000
                       0.000000  0.000000  0.000000  0.000000  0.000000  0.000000
                       0.000000  0.000000  0.000000  0.000000  0.000000  0.000000
                       0.000000  0.000000  0.000000  0.000000  0.000000  0.000000
                       0.000000  0.000000  0.000000  0.000000  0.000000  0.000000
                       0.000000  0.000000  0.000000  0.000000  0.000000  0.000000
                       0.000000  0.000000  0.000000  0.000000  0.000000  0.000000
                       0.000000  0.000000  0.000000  0.000000  0.000000  0.000000
                       0.000000  0.000000  0.000000  0.000000  0.000000  0.000000
                       0.000000  0.000000  0.000000  0.000000  0.000000  0.000000
                       0.000000  0.000000  0.000000  0.000000  0.000000  0.000000
                       0.000000  0.000000  0.000000  0.000000  0.000000  0.000000
                       0.000000  0.000000  0.000000  0.000000  0.000000  0.000000
                       0.000000  0.000000  0.000000  0.000000  0.000000  0.000000
                       0.000000  0.000000  0.000000  0.000000  0.000000  0.000000
                       0.000000  0.000000  0.000000  0.000000  0.000000  0.000000
                       0.000000  0.000000  0.000000  0.000000  0.000000  0.000000
                       0.000000  0.000000  0.000000  0.000000  0.000000  0.000000
                       0.000000  0.000000  0.000000  0.000000  0.000000  0.000000
                       0.000000  0.000000  0.000000  0.000000  0.000000  0.000000
                       0.000000  0.000000  0.000000  0.000000  0.000000  0.000000
                       0.000000  0.000000  0.000000  0.000000  0.000000  0.000000
                       0.000000  0.000000  0.000000  0.000000  0.000000  0.000000
                       0.000000  0.000000  0.000000  0.000000  0.000000  0.000000
                       0.000000  0.000000  0.000000  0.000000  0.000000  0.000000
                       0.000000  0.000000  0.000000  0.000000  0.000000  0.000000
                       0.000000  0.000000  0.000000  0.000000  0.000000  0.000000
        optdriver1          3
        optdriver2          4
            rprim      0.0000000000E+00  5.0000000000E-01  5.0000000000E-01
                       5.0000000000E-01  0.0000000000E+00  5.0000000000E-01
                       5.0000000000E-01  5.0000000000E-01  0.0000000000E+00
          spgroup         227
           symrel      1  0  0   0  1  0   0  0  1      -1  0  0   0 -1  0   0  0 -1
                       0 -1  1   0 -1  0   1 -1  0       0  1 -1   0  1  0  -1  1  0
                      -1  0  0  -1  0  1  -1  1  0       1  0  0   1  0 -1   1 -1  0
                       0  1 -1   1  0 -1   0  0 -1       0 -1  1  -1  0  1   0  0  1
                      -1  0  0  -1  1  0  -1  0  1       1  0  0   1 -1  0   1  0 -1
                       0 -1  1   1 -1  0   0 -1  0       0  1 -1  -1  1  0   0  1  0
                       1  0  0   0  0  1   0  1  0      -1  0  0   0  0 -1   0 -1  0
                       0  1 -1   0  0 -1   1  0 -1       0 -1  1   0  0  1  -1  0  1
                      -1  0  1  -1  1  0  -1  0  0       1  0 -1   1 -1  0   1  0  0
                       0 -1  0   1 -1  0   0 -1  1       0  1  0  -1  1  0   0  1 -1
                       1  0 -1   0  0 -1   0  1 -1      -1  0  1   0  0  1   0 -1  1
                       0  1  0   0  0  1   1  0  0       0 -1  0   0  0 -1  -1  0  0
                       1  0 -1   0  1 -1   0  0 -1      -1  0  1   0 -1  1   0  0  1
                       0 -1  0   0 -1  1   1 -1  0       0  1  0   0  1 -1  -1  1  0
                      -1  0  1  -1  0  0  -1  1  0       1  0 -1   1  0  0   1 -1  0
                       0  1  0   1  0  0   0  0  1       0 -1  0  -1  0  0   0  0 -1
                       0  0 -1   0  1 -1   1  0 -1       0  0  1   0 -1  1  -1  0  1
                       1 -1  0   0 -1  1   0 -1  0      -1  1  0   0  1 -1   0  1  0
                       0  0  1   1  0  0   0  1  0       0  0 -1  -1  0  0   0 -1  0
                      -1  1  0  -1  0  0  -1  0  1       1 -1  0   1  0  0   1  0 -1
                       0  0  1   0  1  0   1  0  0       0  0 -1   0 -1  0  -1  0  0
                       1 -1  0   0 -1  0   0 -1  1      -1  1  0   0  1  0   0  1 -1
                       0  0 -1   1  0 -1   0  1 -1       0  0  1  -1  0  1   0 -1  1
                      -1  1  0  -1  0  1  -1  0  0       1 -1  0   1  0 -1   1  0  0
           timopt          -1
            tnons      0.0000000  0.0000000  0.0000000     0.2500000  0.2500000  0.2500000
                       0.0000000  0.0000000  0.0000000     0.2500000  0.2500000  0.2500000
                       0.0000000  0.0000000  0.0000000     0.2500000  0.2500000  0.2500000
                       0.0000000  0.0000000  0.0000000     0.2500000  0.2500000  0.2500000
                       0.0000000  0.0000000  0.0000000     0.2500000  0.2500000  0.2500000
                       0.0000000  0.0000000  0.0000000     0.2500000  0.2500000  0.2500000
                       0.0000000  0.0000000  0.0000000     0.2500000  0.2500000  0.2500000
                       0.0000000  0.0000000  0.0000000     0.2500000  0.2500000  0.2500000
                       0.0000000  0.0000000  0.0000000     0.2500000  0.2500000  0.2500000
                       0.0000000  0.0000000  0.0000000     0.2500000  0.2500000  0.2500000
                       0.0000000  0.0000000  0.0000000     0.2500000  0.2500000  0.2500000
                       0.0000000  0.0000000  0.0000000     0.2500000  0.2500000  0.2500000
                       0.0000000  0.0000000  0.0000000     0.2500000  0.2500000  0.2500000
                       0.0000000  0.0000000  0.0000000     0.2500000  0.2500000  0.2500000
                       0.0000000  0.0000000  0.0000000     0.2500000  0.2500000  0.2500000
                       0.0000000  0.0000000  0.0000000     0.2500000  0.2500000  0.2500000
                       0.0000000  0.0000000  0.0000000     0.2500000  0.2500000  0.2500000
                       0.0000000  0.0000000  0.0000000     0.2500000  0.2500000  0.2500000
                       0.0000000  0.0000000  0.0000000     0.2500000  0.2500000  0.2500000
                       0.0000000  0.0000000  0.0000000     0.2500000  0.2500000  0.2500000
                       0.0000000  0.0000000  0.0000000     0.2500000  0.2500000  0.2500000
                       0.0000000  0.0000000  0.0000000     0.2500000  0.2500000  0.2500000
                       0.0000000  0.0000000  0.0000000     0.2500000  0.2500000  0.2500000
                       0.0000000  0.0000000  0.0000000     0.2500000  0.2500000  0.2500000
            typat      1  1
              wtk        0.00195    0.01563    0.01563    0.01563    0.00781    0.01172
                         0.04688    0.04688    0.04688    0.04688    0.04688    0.02344
                         0.01172    0.04688    0.04688    0.04688    0.02344    0.01172
                         0.04688    0.02344    0.00586    0.04688    0.09375    0.04688
                         0.04688    0.09375    0.04688    0.02344    0.01172
           xangst      0.0000000000E+00  0.0000000000E+00  0.0000000000E+00
                       1.3573395400E+00  1.3573395400E+00  1.3573395400E+00
            xcart      0.0000000000E+00  0.0000000000E+00  0.0000000000E+00
                       2.5650000000E+00  2.5650000000E+00  2.5650000000E+00
             xred      0.0000000000E+00  0.0000000000E+00  0.0000000000E+00
                       2.5000000000E-01  2.5000000000E-01  2.5000000000E-01
            znucl       14.00000

================================================================================

 chkinp: Checking input parameters for consistency, jdtset=   1.

 chkinp: Checking input parameters for consistency, jdtset=   2.

================================================================================
== DATASET  1 ==================================================================
-   mpi_nproc: 256, omp_nthreads: -1 (-1 if OMP is not activated)


--- !DatasetInfo
iteration_state: {dtset: 1, }
dimensions: {natom: 2, nkpt: 29, mband: 300, nsppol: 1, nspinor: 1, nspden: 1, mpw: 995, }
cutoff_energies: {ecut:  18.0, pawecutdg:  -1.0, }
electrons: {nelect:   8.00000000E+00, charge:   0.00000000E+00, occopt:   1.00000000E+00, tsmear:   1.00000000E-02, }
meta: {optdriver: 3, gwcalctyp: 0, }
...

 mkfilename: getwfk from: ../outdata_gs_DS2_WFK

 Exchange-correlation functional for the present dataset will be:
  GGA: Perdew-Burke-Ernzerhof functional - ixc=11
 Citation for XC functional:
  J.P.Perdew, K.Burke, M.Ernzerhof, PRL 77, 3865 (1996)

 SCREENING: Calculation of the susceptibility and dielectric matrices 

 Based on a program developped by R.W. Godby, V. Olevano, G. Onida, and L. Reining.
 Incorporated in ABINIT by V. Olevano, G.-M. Rignanese, and M. Torrent.
.Using single precision arithmetic ; gwpc =  4

 Real(R)+Recip(G) space primitive vectors, cartesian coordinates (Bohr,Bohr^-1):
 R(1)=  0.0000000  5.1300000  5.1300000  G(1)= -0.0974659  0.0974659  0.0974659
 R(2)=  5.1300000  0.0000000  5.1300000  G(2)=  0.0974659 -0.0974659  0.0974659
 R(3)=  5.1300000  5.1300000  0.0000000  G(3)=  0.0974659  0.0974659 -0.0974659
 Unit cell volume ucvol=  2.7001139E+02 bohr^3
 Angles (23,13,12)=  6.00000000E+01  6.00000000E+01  6.00000000E+01 degrees

--- Pseudopotential description ------------------------------------------------
- pspini: atom type   1  psp file is ../Si.psp8
- pspatm: opening atomic psp file    ../Si.psp8
- Si    ONCVPSP-3.2.3.1  r_core=   1.60303   1.72197   1.91712
- 14.00000   4.00000    170510                znucl, zion, pspdat
    8   11    2    4       600   0.00000      pspcod,pspxc,lmax,lloc,mmax,r2well
    5.99000000000000    4.00000000000000    0.00000000000000   rchrg,fchrg,qchrg
     nproj     2     2     2
     extension_switch     1
  pspatm : epsatm=    9.34321699
         --- l  ekb(1:nproj) -->
             0    5.168965    0.829883
             1    2.571282    0.578307
             2   -2.427311   -0.488097
 pspatm: atomic psp has been read  and splines computed

   1.49491472E+02                                ecore*ucvol(ha*bohr**3)
--------------------------------------------------------------------------------

 ==== K-mesh for the wavefunctions ====
 Number of points in the irreducible wedge :    29
 Reduced coordinates and weights : 

     1)     0.00000000E+00  0.00000000E+00  0.00000000E+00       0.00195
     2)     1.25000000E-01  0.00000000E+00  0.00000000E+00       0.01563
     3)     2.50000000E-01  0.00000000E+00  0.00000000E+00       0.01563
     4)     3.75000000E-01  0.00000000E+00  0.00000000E+00       0.01563
     5)     5.00000000E-01  0.00000000E+00  0.00000000E+00       0.00781
     6)     1.25000000E-01  1.25000000E-01  0.00000000E+00       0.01172
     7)     2.50000000E-01  1.25000000E-01  0.00000000E+00       0.04688
     8)     3.75000000E-01  1.25000000E-01  0.00000000E+00       0.04688
     9)     5.00000000E-01  1.25000000E-01  0.00000000E+00       0.04688
    10)    -3.75000000E-01  1.25000000E-01  0.00000000E+00       0.04688
    11)    -2.50000000E-01  1.25000000E-01  0.00000000E+00       0.04688
    12)    -1.25000000E-01  1.25000000E-01  0.00000000E+00       0.02344
    13)     2.50000000E-01  2.50000000E-01  0.00000000E+00       0.01172
    14)     3.75000000E-01  2.50000000E-01  0.00000000E+00       0.04688
    15)     5.00000000E-01  2.50000000E-01  0.00000000E+00       0.04688
    16)    -3.75000000E-01  2.50000000E-01  0.00000000E+00       0.04688
    17)    -2.50000000E-01  2.50000000E-01  0.00000000E+00       0.02344
    18)     3.75000000E-01  3.75000000E-01  0.00000000E+00       0.01172
    19)     5.00000000E-01  3.75000000E-01  0.00000000E+00       0.04688
    20)    -3.75000000E-01  3.75000000E-01  0.00000000E+00       0.02344
    21)     5.00000000E-01  5.00000000E-01  0.00000000E+00       0.00586
    22)     3.75000000E-01  2.50000000E-01  1.25000000E-01       0.04688
    23)     5.00000000E-01  2.50000000E-01  1.25000000E-01       0.09375
    24)    -3.75000000E-01  2.50000000E-01  1.25000000E-01       0.04688
    25)     5.00000000E-01  3.75000000E-01  1.25000000E-01       0.04688
    26)    -3.75000000E-01  3.75000000E-01  1.25000000E-01       0.09375
    27)    -2.50000000E-01  3.75000000E-01  1.25000000E-01       0.04688
    28)    -3.75000000E-01  5.00000000E-01  1.25000000E-01       0.02344
    29)    -2.50000000E-01  5.00000000E-01  2.50000000E-01       0.01172

 Together with 48 symmetry operations and time-reversal symmetry 
 yields   512 points in the full Brillouin Zone.


 ==== Q-mesh for the screening function ====
 Number of points in the irreducible wedge :    29
 Reduced coordinates and weights : 

     1)     0.00000000E+00  0.00000000E+00  0.00000000E+00       0.00195
     2)     1.25000000E-01  0.00000000E+00  0.00000000E+00       0.01563
     3)     2.50000000E-01  0.00000000E+00  0.00000000E+00       0.01563
     4)     3.75000000E-01  0.00000000E+00  0.00000000E+00       0.01563
     5)     5.00000000E-01  0.00000000E+00  0.00000000E+00       0.00781
     6)     1.25000000E-01  1.25000000E-01  0.00000000E+00       0.01172
     7)     2.50000000E-01  1.25000000E-01  0.00000000E+00       0.04688
     8)     3.75000000E-01  1.25000000E-01  0.00000000E+00       0.04688
     9)     5.00000000E-01  1.25000000E-01  0.00000000E+00       0.04688
    10)    -3.75000000E-01  1.25000000E-01  0.00000000E+00       0.04688
    11)    -2.50000000E-01  1.25000000E-01  0.00000000E+00       0.04688
    12)    -1.25000000E-01  1.25000000E-01  0.00000000E+00       0.02344
    13)     2.50000000E-01  2.50000000E-01  0.00000000E+00       0.01172
    14)     3.75000000E-01  2.50000000E-01  0.00000000E+00       0.04688
    15)     5.00000000E-01  2.50000000E-01  0.00000000E+00       0.04688
    16)    -3.75000000E-01  2.50000000E-01  0.00000000E+00       0.04688
    17)    -2.50000000E-01  2.50000000E-01  0.00000000E+00       0.02344
    18)     3.75000000E-01  3.75000000E-01  0.00000000E+00       0.01172
    19)     5.00000000E-01  3.75000000E-01  0.00000000E+00       0.04688
    20)    -3.75000000E-01  3.75000000E-01  0.00000000E+00       0.02344
    21)     5.00000000E-01  5.00000000E-01  0.00000000E+00       0.00586
    22)     3.75000000E-01  2.50000000E-01  1.25000000E-01       0.04688
    23)     5.00000000E-01  2.50000000E-01  1.25000000E-01       0.09375
    24)    -3.75000000E-01  2.50000000E-01  1.25000000E-01       0.04688
    25)     5.00000000E-01  3.75000000E-01  1.25000000E-01       0.04688
    26)    -3.75000000E-01  3.75000000E-01  1.25000000E-01       0.09375
    27)    -2.50000000E-01  3.75000000E-01  1.25000000E-01       0.04688
    28)    -3.75000000E-01  5.00000000E-01  1.25000000E-01       0.02344
    29)    -2.50000000E-01  5.00000000E-01  2.50000000E-01       0.01172

 Together with 48 symmetry operations and time-reversal symmetry 
 yields   512 points in the full Brillouin Zone.


 setmesh: FFT mesh size selected  =    32x   32x   32
          total number of points  =        32768


- screening: taking advantage of time-reversal symmetry 
- Maximum band index for partially occupied states nbvw = 4
- Remaining bands to be divided among processors   nbcw = 296
- Number of bands treated by each node ~1

 Number of electrons calculated from density =    8.0000; Expected =    8.0000
 average of density, n =  0.029628
 r_s =    2.0048
 omega_plasma =   16.6039 [eV]


 calculating chi0 at frequencies [eV] :
  1    0.000000E+00    0.000000E+00
  2    0.000000E+00    1.660388E+01


--------------------------------------------------------------------------------
  q-point number  1        q = ( 0.000000, 0.000000, 0.000000) [r.l.u.]
--------------------------------------------------------------------------------
  chi0(G,G') at the    1 th omega   0.0000   0.0000 [eV]
       1       2       3       4       5       6       7       8       9
    1  -0.000   0.000  -0.000  -0.000   0.000   0.000  -0.000  -0.000   0.000
        0.000   0.000   0.000  -0.000  -0.000   0.000   0.000  -0.000  -0.000

    2   0.000 -18.939  -0.000  -0.094   0.000  -0.094  -0.000  -0.094   0.000
       -0.000   0.000  -4.558  -0.000  -0.263   0.000  -0.263  -0.000  -0.263

  chi0(G,G') at the    2 th omega   0.0000  16.6039 [eV]
       1       2       3       4       5       6       7       8       9
    1  -0.000   0.000  -0.000  -0.000   0.000   0.000  -0.000  -0.000   0.000
       -0.000   0.000   0.000  -0.000  -0.000   0.000   0.000  -0.000  -0.000

    2   0.000  -7.853  -0.000  -0.036   0.000  -0.036  -0.000  -0.036  -0.000
       -0.000   0.000  -1.003  -0.000  -0.125   0.000  -0.125   0.000  -0.125

 For q-point:  0.000010 0.000020 0.000030
  dielectric constant =  13.2041
  dielectric constant without local fields =  14.6448

  Average fulfillment of the sum rule on Im[epsilon] for q-point    1 :     95.06  [%]
  Heads and wings of the symmetrical epsilon^-1(G,G') 

   Upper and lower wings at the    1 th omega   0.0000   0.0000 [eV]
       1       2       3       4       5       6       7       8       9
      0.076   0.006  -0.006  -0.017   0.017   0.017  -0.017  -0.006   0.006
      0.000   0.006   0.006  -0.017  -0.017   0.017   0.017  -0.006  -0.006
       1       2       3       4       5       6       7       8       9
      0.076   0.006  -0.006  -0.017   0.017   0.017  -0.017  -0.006   0.006
      0.000  -0.006  -0.006   0.017   0.017  -0.017  -0.017   0.006   0.006


   Upper and lower wings at the    2 th omega   0.0000  16.6039 [eV]
       1       2       3       4       5       6       7       8       9
      0.562   0.008  -0.008  -0.025   0.025   0.025  -0.025  -0.008   0.008
      0.000   0.008   0.008  -0.025  -0.025   0.025   0.025  -0.008  -0.008
       1       2       3       4       5       6       7       8       9
      0.562   0.008  -0.008  -0.025   0.025   0.025  -0.025  -0.008   0.008
      0.000  -0.008  -0.008   0.025   0.025  -0.025  -0.025   0.008   0.008




--------------------------------------------------------------------------------
  q-point number  2        q = ( 0.125000, 0.000000, 0.000000) [r.l.u.]
--------------------------------------------------------------------------------
  chi0(G,G') at the    1 th omega   0.0000   0.0000 [eV]
       1       2       3       4       5       6       7       8       9
    1  -3.611  -1.248   1.559  -0.161  -1.016  -0.161  -1.016  -0.161  -1.016
        0.000  -1.248  -1.559  -0.161   1.016  -0.161   1.016  -0.161   1.016

    2  -1.248 -18.821   0.000  -0.414  -0.000  -0.414  -0.000  -0.414   0.000
        1.248   0.000  -4.350   0.000  -0.048   0.000  -0.048   0.000  -0.048

  chi0(G,G') at the    2 th omega   0.0000  16.6039 [eV]
       1       2       3       4       5       6       7       8       9
    1  -0.292  -0.242   0.217   0.031  -0.119   0.031  -0.119   0.031  -0.119
        0.000  -0.242  -0.217   0.031   0.119   0.031   0.119   0.031   0.119

    2  -0.242  -8.446   0.000  -0.022   0.000  -0.022   0.000  -0.022  -0.000
        0.242   0.000  -0.986   0.000  -0.102   0.000  -0.102   0.000  -0.102

  Average fulfillment of the sum rule on Im[epsilon] for q-point    2 :     95.26  [%]


--------------------------------------------------------------------------------
  q-point number  3        q = ( 0.250000, 0.000000, 0.000000) [r.l.u.]
--------------------------------------------------------------------------------
  chi0(G,G') at the    1 th omega   0.0000   0.0000 [eV]
       1       2       3       4       5       6       7       8       9
    1  -8.875  -1.688   2.411  -0.954  -1.916  -0.954  -1.916  -0.954  -1.916
        0.000  -1.688  -2.411  -0.954   1.916  -0.954   1.916  -0.954   1.916

    2  -1.688 -18.504  -0.000  -0.323  -0.000  -0.323   0.000  -0.323   0.000
        1.688   0.000  -4.025  -0.000   0.012  -0.000   0.012  -0.000   0.012

  chi0(G,G') at the    2 th omega   0.0000  16.6039 [eV]
       1       2       3       4       5       6       7       8       9
    1  -1.101  -0.484   0.388  -0.030  -0.300  -0.030  -0.300  -0.030  -0.300
        0.000  -0.484  -0.388  -0.030   0.300  -0.030   0.300  -0.030   0.300

    2  -0.484  -8.829  -0.000  -0.002  -0.000  -0.002   0.000  -0.002   0.000
        0.484   0.000  -0.934  -0.000  -0.079  -0.000  -0.079  -0.000  -0.079

  Average fulfillment of the sum rule on Im[epsilon] for q-point    3 :     95.22  [%]


--------------------------------------------------------------------------------
  q-point number  4        q = ( 0.375000, 0.000000, 0.000000) [r.l.u.]
--------------------------------------------------------------------------------
  chi0(G,G') at the    1 th omega   0.0000   0.0000 [eV]
       1       2       3       4       5       6       7       8       9
    1 -12.331  -1.964   2.772  -1.580  -2.348  -1.580  -2.348  -1.580  -2.348
        0.000  -1.964  -2.772  -1.580   2.348  -1.580   2.348  -1.580   2.348

    2  -1.964 -17.915   0.000  -0.010   0.000  -0.010   0.000  -0.010  -0.000
        1.964   0.000  -3.763  -0.000   0.124   0.000   0.124  -0.000   0.124

  chi0(G,G') at the    2 th omega   0.0000  16.6039 [eV]
       1       2       3       4       5       6       7       8       9
    1  -2.257  -0.707   0.496  -0.166  -0.509  -0.166  -0.509  -0.166  -0.509
        0.000  -0.707  -0.496  -0.166   0.509  -0.166   0.509  -0.166   0.509

    2  -0.707  -9.008   0.000   0.025  -0.000   0.025  -0.000   0.025  -0.000
        0.707   0.000  -0.848  -0.000  -0.063  -0.000  -0.063  -0.000  -0.063

  Average fulfillment of the sum rule on Im[epsilon] for q-point    4 :     95.19  [%]


--------------------------------------------------------------------------------
  q-point number  5        q = ( 0.500000, 0.000000, 0.000000) [r.l.u.]
--------------------------------------------------------------------------------
  chi0(G,G') at the    1 th omega   0.0000   0.0000 [eV]
       1       2       3       4       5       6       7       8       9
    1 -14.555  -2.272   2.876  -1.977  -2.540  -1.977  -2.540  -1.977  -2.540
        0.000  -2.272  -2.876  -1.977   2.540  -1.977   2.540  -1.977   2.540

    2  -2.272 -16.924  -0.000   0.309   0.000   0.309   0.000   0.309   0.000
        2.272   0.000  -3.560  -0.000   0.223  -0.000   0.223  -0.000   0.223

  chi0(G,G') at the    2 th omega   0.0000  16.6039 [eV]
       1       2       3       4       5       6       7       8       9
    1  -3.564  -0.899   0.532  -0.347  -0.716  -0.347  -0.716  -0.347  -0.716
        0.000  -0.899  -0.532  -0.347   0.716  -0.347   0.716  -0.347   0.716

    2  -0.899  -8.996   0.000   0.058   0.000   0.058   0.000   0.058   0.000
        0.899   0.000  -0.727  -0.000  -0.054  -0.000  -0.054   0.000  -0.054

  Average fulfillment of the sum rule on Im[epsilon] for q-point    5 :     95.18  [%]


--------------------------------------------------------------------------------
  q-point number  6        q = ( 0.125000, 0.125000, 0.000000) [r.l.u.]
--------------------------------------------------------------------------------
  chi0(G,G') at the    1 th omega   0.0000   0.0000 [eV]
       1       2       3       4       5       6       7       8       9
    1  -4.746  -1.400   0.341   0.341  -1.400   0.341  -1.400  -1.400   0.341
        0.000  -1.400  -0.341   0.341   1.400   0.341   1.400  -1.400  -0.341

    2  -1.400 -19.128  -0.000  -0.242  -0.000  -0.242   0.000  -0.544   0.000
        1.400   0.000  -4.005  -0.000   0.071   0.000   0.071   0.000  -0.287

  chi0(G,G') at the    2 th omega   0.0000  16.6039 [eV]
       1       2       3       4       5       6       7       8       9
    1  -0.387  -0.197   0.102   0.102  -0.197   0.102  -0.197  -0.197   0.102
        0.000  -0.197  -0.102   0.102   0.197   0.102   0.197  -0.197  -0.102

    2  -0.197  -8.302  -0.000  -0.040   0.000  -0.040   0.000  -0.005   0.000
        0.197   0.000  -0.968  -0.000  -0.098   0.000  -0.098   0.000  -0.120

  Average fulfillment of the sum rule on Im[epsilon] for q-point    6 :     95.25  [%]


--------------------------------------------------------------------------------
  q-point number  7        q = ( 0.250000, 0.125000, 0.000000) [r.l.u.]
--------------------------------------------------------------------------------
  chi0(G,G') at the    1 th omega   0.0000   0.0000 [eV]
       1       2       3       4       5       6       7       8       9
    1  -9.249  -1.970   1.316  -0.308  -2.115  -0.308  -2.115  -1.793  -0.990
        0.000  -1.970  -1.316  -0.308   2.115  -0.308   2.115  -1.793   0.990

    2  -1.970 -18.758  -0.000  -0.374  -0.000  -0.374  -0.000  -0.439   0.000
        1.970   0.000  -3.725   0.000   0.165   0.000   0.165  -0.000  -0.249

  chi0(G,G') at the    2 th omega   0.0000  16.6039 [eV]
       1       2       3       4       5       6       7       8       9
    1  -1.017  -0.434   0.284   0.074  -0.342   0.074  -0.342  -0.230  -0.093
        0.000  -0.434  -0.284   0.074   0.342   0.074   0.342  -0.230   0.093

    2  -0.434  -8.741   0.000  -0.023   0.000  -0.023  -0.000   0.015   0.000
        0.434   0.000  -0.929  -0.000  -0.079  -0.000  -0.079  -0.000  -0.094

  Average fulfillment of the sum rule on Im[epsilon] for q-point    7 :     95.23  [%]


--------------------------------------------------------------------------------
  q-point number  8        q = ( 0.375000, 0.125000, 0.000000) [r.l.u.]
--------------------------------------------------------------------------------
  chi0(G,G') at the    1 th omega   0.0000   0.0000 [eV]
       1       2       3       4       5       6       7       8       9
    1 -12.992  -2.177   1.738  -1.166  -2.603  -1.166  -2.603  -2.135  -1.644
        0.000  -2.177  -1.738  -1.166   2.603  -1.166   2.603  -2.135   1.644

    2  -2.177 -18.198  -0.000  -0.146  -0.000  -0.146  -0.000  -0.155  -0.000
        2.177   0.000  -3.483   0.000   0.234   0.000   0.234  -0.000  -0.142

  chi0(G,G') at the    2 th omega   0.0000  16.6039 [eV]
       1       2       3       4       5       6       7       8       9
    1  -2.046  -0.657   0.409  -0.042  -0.523  -0.042  -0.523  -0.329  -0.328
        0.000  -0.657  -0.409  -0.042   0.523  -0.042   0.523  -0.329   0.328

    2  -0.657  -8.977   0.000   0.002  -0.000   0.002  -0.000   0.040  -0.000
        0.657   0.000  -0.855   0.000  -0.063   0.000  -0.063  -0.000  -0.071

  Average fulfillment of the sum rule on Im[epsilon] for q-point    8 :     95.20  [%]


--------------------------------------------------------------------------------
  q-point number  9        q = ( 0.500000, 0.125000, 0.000000) [r.l.u.]
--------------------------------------------------------------------------------
  chi0(G,G') at the    1 th omega   0.0000   0.0000 [eV]
       1       2       3       4       5       6       7       8       9
    1 -15.317  -2.385   1.875  -1.755  -2.806  -1.755  -2.806  -2.380  -1.991
        0.000  -2.385  -1.875  -1.755   2.806  -1.755   2.806  -2.380   1.991

    2  -2.385 -17.298  -0.000   0.165  -0.000   0.165   0.000   0.210   0.000
        2.385   0.000  -3.314   0.000   0.294   0.000   0.294  -0.000   0.042

  chi0(G,G') at the    2 th omega   0.0000  16.6039 [eV]
       1       2       3       4       5       6       7       8       9
    1  -3.286  -0.855   0.468  -0.218  -0.713  -0.218  -0.713  -0.471  -0.565
        0.000  -0.855  -0.468  -0.218   0.713  -0.218   0.713  -0.471   0.565

    2  -0.855  -9.018  -0.000   0.035   0.000   0.035   0.000   0.070   0.000
        0.855   0.000  -0.747   0.000  -0.054   0.000  -0.054  -0.000  -0.057

  Average fulfillment of the sum rule on Im[epsilon] for q-point    9 :     95.19  [%]


--------------------------------------------------------------------------------
  q-point number 10        q = (-0.375000, 0.125000, 0.000000) [r.l.u.]
--------------------------------------------------------------------------------
  chi0(G,G') at the    1 th omega   0.0000   0.0000 [eV]
       1       2       3       4       5       6       7       8       9
    1 -14.639   1.845  -2.295  -2.365  -2.219  -2.365  -2.219  -2.749  -1.000
        0.000   1.845   2.295  -2.365   2.219  -2.365   2.219  -2.749   1.000

    2   1.845 -16.822  -0.000   0.728   0.000   0.728   0.000  -0.122  -0.000
       -1.845   0.000  -3.376   0.000  -0.447  -0.000  -0.447  -0.000  -1.491

  chi0(G,G') at the    2 th omega   0.0000  16.6039 [eV]
       1       2       3       4       5       6       7       8       9
    1  -2.860   0.456  -0.793  -0.548  -0.344  -0.548  -0.344  -0.693  -0.038
        0.000   0.456   0.793  -0.548   0.344  -0.548   0.344  -0.693   0.038

    2   0.456  -4.565   0.000  -0.091   0.000  -0.091   0.000  -0.063  -0.000
       -0.456   0.000  -0.787   0.000  -0.114  -0.000  -0.114   0.000  -0.120

  Average fulfillment of the sum rule on Im[epsilon] for q-point   10 :     95.19  [%]


--------------------------------------------------------------------------------
  q-point number 11        q = (-0.250000, 0.125000, 0.000000) [r.l.u.]
--------------------------------------------------------------------------------
  chi0(G,G') at the    1 th omega   0.0000   0.0000 [eV]
       1       2       3       4       5       6       7       8       9
    1 -11.909   1.628  -2.103  -2.021  -1.821  -2.021  -1.821  -2.464  -0.132
        0.000   1.628   2.103  -2.021   1.821  -2.021   1.821  -2.464   0.132

    2   1.628 -17.905   0.000   0.708   0.000   0.708   0.000  -0.065   0.000
       -1.628   0.000  -3.565   0.000  -0.437   0.000  -0.437  -0.000  -1.501

  chi0(G,G') at the    2 th omega   0.0000  16.6039 [eV]
       1       2       3       4       5       6       7       8       9
    1  -1.669   0.374  -0.585  -0.328  -0.205  -0.328  -0.205  -0.515   0.135
        0.000   0.374   0.585  -0.328   0.205  -0.328   0.205  -0.515  -0.135

    2   0.374  -5.762   0.000  -0.077   0.000  -0.077   0.000  -0.051   0.000
       -0.374   0.000  -0.883   0.000  -0.129   0.000  -0.129  -0.000  -0.147

  Average fulfillment of the sum rule on Im[epsilon] for q-point   11 :     95.21  [%]


--------------------------------------------------------------------------------
  q-point number 12        q = (-0.125000, 0.125000, 0.000000) [r.l.u.]
--------------------------------------------------------------------------------
  chi0(G,G') at the    1 th omega   0.0000   0.0000 [eV]
       1       2       3       4       5       6       7       8       9
    1  -7.587   1.040  -1.848  -1.293  -1.293  -1.293  -1.293  -1.848   1.040
        0.000   1.040   1.848  -1.293   1.293  -1.293   1.293  -1.848  -1.040

    2   1.040 -18.736  -0.000   0.562  -0.000   0.562  -0.000  -0.157  -0.000
       -1.040   0.000  -3.831   0.000  -0.330   0.000  -0.330   0.000  -1.227

  chi0(G,G') at the    2 th omega   0.0000  16.6039 [eV]
       1       2       3       4       5       6       7       8       9
    1  -0.754   0.228  -0.355  -0.123  -0.123  -0.123  -0.123  -0.355   0.228
        0.000   0.228   0.355  -0.123   0.123  -0.123   0.123  -0.355  -0.228

    2   0.228  -6.804  -0.000  -0.064  -0.000  -0.064  -0.000  -0.037   0.000
       -0.228   0.000  -0.945   0.000  -0.130   0.000  -0.130   0.000  -0.155

  Average fulfillment of the sum rule on Im[epsilon] for q-point   12 :     95.24  [%]


--------------------------------------------------------------------------------
  q-point number 13        q = ( 0.250000, 0.250000, 0.000000) [r.l.u.]
--------------------------------------------------------------------------------
  chi0(G,G') at the    1 th omega   0.0000   0.0000 [eV]
       1       2       3       4       5       6       7       8       9
    1 -11.431  -2.336  -0.233  -0.233  -2.336  -0.233  -2.336  -2.336  -0.233
        0.000  -2.336   0.233  -0.233   2.336  -0.233   2.336  -2.336   0.233

    2  -2.336 -19.095  -0.000  -0.350   0.000  -0.350   0.000  -0.277   0.000
        2.336   0.000  -3.117   0.000   0.213   0.000   0.213  -0.000  -0.328

  chi0(G,G') at the    2 th omega   0.0000  16.6039 [eV]
       1       2       3       4       5       6       7       8       9
    1  -1.437  -0.444   0.085   0.085  -0.444   0.085  -0.444  -0.444   0.085
        0.000  -0.444  -0.085   0.085   0.444   0.085   0.444  -0.444  -0.085

    2  -0.444  -8.676   0.000  -0.047  -0.000  -0.047   0.000   0.035   0.000
        0.444   0.000  -0.870  -0.000  -0.071  -0.000  -0.071  -0.000  -0.105

  Average fulfillment of the sum rule on Im[epsilon] for q-point   13 :     95.21  [%]


--------------------------------------------------------------------------------
  q-point number 14        q = ( 0.375000, 0.250000, 0.000000) [r.l.u.]
--------------------------------------------------------------------------------
  chi0(G,G') at the    1 th omega   0.0000   0.0000 [eV]
       1       2       3       4       5       6       7       8       9
    1 -14.385  -2.596   0.216  -0.904  -2.688  -0.904  -2.688  -2.420  -1.186
        0.000  -2.596  -0.216  -0.904   2.688  -0.904   2.688  -2.420   1.186

    2  -2.596 -18.438  -0.000  -0.310  -0.000  -0.310   0.000  -0.101   0.000
        2.596   0.000  -2.936   0.000   0.308   0.000   0.308  -0.000  -0.267

  chi0(G,G') at the    2 th omega   0.0000  16.6039 [eV]
       1       2       3       4       5       6       7       8       9
    1  -2.270  -0.653   0.217   0.004  -0.588   0.004  -0.588  -0.510  -0.165
        0.000  -0.653  -0.217   0.004   0.588   0.004   0.588  -0.510   0.165

    2  -0.653  -8.945  -0.000  -0.023   0.000  -0.023   0.000   0.059  -0.000
        0.653   0.000  -0.811   0.000  -0.059   0.000  -0.059   0.000  -0.080

  Average fulfillment of the sum rule on Im[epsilon] for q-point   14 :     95.19  [%]


--------------------------------------------------------------------------------
  q-point number 15        q = ( 0.500000, 0.250000, 0.000000) [r.l.u.]
--------------------------------------------------------------------------------
  chi0(G,G') at the    1 th omega   0.0000   0.0000 [eV]
       1       2       3       4       5       6       7       8       9
    1 -16.742  -2.678   0.361  -1.672  -2.929  -1.672  -2.929  -2.527  -1.672
        0.000  -2.678  -0.361  -1.672   2.929  -1.672   2.929  -2.527   1.672

    2  -2.678 -17.557   0.000  -0.024   0.000  -0.024   0.000   0.164   0.000
        2.678   0.000  -2.830   0.000   0.341   0.000   0.341   0.000  -0.090

  chi0(G,G') at the    2 th omega   0.0000  16.6039 [eV]
       1       2       3       4       5       6       7       8       9
    1  -3.357  -0.843   0.292  -0.150  -0.749  -0.150  -0.749  -0.616  -0.425
        0.000  -0.843  -0.292  -0.150   0.749  -0.150   0.749  -0.616   0.425

    2  -0.843  -9.024   0.000   0.010   0.000   0.010   0.000   0.085  -0.000
        0.843   0.000  -0.719   0.000  -0.052   0.000  -0.052   0.000  -0.061

  Average fulfillment of the sum rule on Im[epsilon] for q-point   15 :     95.18  [%]


--------------------------------------------------------------------------------
  q-point number 16        q = (-0.375000, 0.250000, 0.000000) [r.l.u.]
--------------------------------------------------------------------------------
  chi0(G,G') at the    1 th omega   0.0000   0.0000 [eV]
       1       2       3       4       5       6       7       8       9
    1 -17.167   0.359  -2.634  -2.627  -2.638  -2.627  -2.638  -2.759  -0.764
        0.000   0.359   2.634  -2.627   2.638  -2.627   2.638  -2.759   0.764

    2   0.359 -18.121  -0.000   0.576  -0.000   0.576  -0.000  -0.204  -0.000
       -0.359   0.000  -2.860   0.000  -0.043   0.000  -0.043   0.000  -1.532

  chi0(G,G') at the    2 th omega   0.0000  16.6039 [eV]
       1       2       3       4       5       6       7       8       9
    1  -3.742   0.303  -0.900  -0.631  -0.544  -0.631  -0.544  -0.864   0.043
        0.000   0.303   0.900  -0.631   0.544  -0.631   0.544  -0.864  -0.043

    2   0.303  -4.537  -0.000  -0.113  -0.000  -0.113  -0.000  -0.035   0.000
       -0.303   0.000  -0.679   0.000  -0.081   0.000  -0.081   0.000  -0.087

  Average fulfillment of the sum rule on Im[epsilon] for q-point   16 :     95.18  [%]


--------------------------------------------------------------------------------
  q-point number 17        q = (-0.250000, 0.250000, 0.000000) [r.l.u.]
--------------------------------------------------------------------------------
  chi0(G,G') at the    1 th omega   0.0000   0.0000 [eV]
       1       2       3       4       5       6       7       8       9
    1 -15.209   0.242  -2.560  -2.367  -2.367  -2.367  -2.367  -2.560   0.242
        0.000   0.242   2.560  -2.367   2.367  -2.367   2.367  -2.560  -0.242

    2   0.242 -18.925  -0.000   0.595  -0.000   0.595  -0.000  -0.086   0.000
       -0.242   0.000  -2.966  -0.000  -0.074  -0.000  -0.074  -0.000  -1.701

  chi0(G,G') at the    2 th omega   0.0000  16.6039 [eV]
       1       2       3       4       5       6       7       8       9
    1  -2.605   0.249  -0.719  -0.415  -0.415  -0.415  -0.415  -0.719   0.249
        0.000   0.249   0.719  -0.415   0.415  -0.415   0.415  -0.719  -0.249

    2   0.249  -5.678   0.000  -0.102  -0.000  -0.102  -0.000  -0.029   0.000
       -0.249   0.000  -0.783  -0.000  -0.098  -0.000  -0.098   0.000  -0.126

  Average fulfillment of the sum rule on Im[epsilon] for q-point   17 :     95.19  [%]


--------------------------------------------------------------------------------
  q-point number 18        q = ( 0.375000, 0.375000, 0.000000) [r.l.u.]
--------------------------------------------------------------------------------
  chi0(G,G') at the    1 th omega   0.0000   0.0000 [eV]
       1       2       3       4       5       6       7       8       9
    1 -15.527  -2.723  -0.864  -0.864  -2.723  -0.864  -2.723  -2.723  -0.864
        0.000  -2.723   0.864  -0.864   2.723  -0.864   2.723  -2.723   0.864

    2  -2.723 -18.595   0.000  -0.266   0.000  -0.266   0.000   0.082   0.000
        2.723   0.000  -2.446   0.000   0.268   0.000   0.268   0.000  -0.280

  chi0(G,G') at the    2 th omega   0.0000  16.6039 [eV]
       1       2       3       4       5       6       7       8       9
    1  -2.880  -0.693  -0.037  -0.037  -0.693  -0.037  -0.693  -0.693  -0.037
        0.000  -0.693   0.037  -0.037   0.693  -0.037   0.693  -0.693   0.037

    2  -0.693  -8.925   0.000  -0.048  -0.000  -0.048  -0.000   0.080   0.000
        0.693   0.000  -0.727   0.000  -0.051   0.000  -0.051  -0.000  -0.086

  Average fulfillment of the sum rule on Im[epsilon] for q-point   18 :     95.19  [%]


--------------------------------------------------------------------------------
  q-point number 19        q = ( 0.500000, 0.375000, 0.000000) [r.l.u.]
--------------------------------------------------------------------------------
  chi0(G,G') at the    1 th omega   0.0000   0.0000 [eV]
       1       2       3       4       5       6       7       8       9
    1 -17.320  -2.889  -0.700  -1.457  -2.895  -1.457  -2.895  -2.657  -1.508
        0.000  -2.889   0.700  -1.457   2.895  -1.457   2.895  -2.657   1.508

    2  -2.889 -17.669  -0.000  -0.150  -0.000  -0.150  -0.000   0.205   0.000
        2.889   0.000  -2.388   0.000   0.341  -0.000   0.341  -0.000  -0.140

  chi0(G,G') at the    2 th omega   0.0000  16.6039 [eV]
       1       2       3       4       5       6       7       8       9
    1  -3.762  -0.863   0.044  -0.154  -0.819  -0.154  -0.819  -0.766  -0.310
        0.000  -0.863  -0.044  -0.154   0.819  -0.154   0.819  -0.766   0.310

    2  -0.863  -9.022  -0.000  -0.014   0.000  -0.014  -0.000   0.102  -0.000
        0.863   0.000  -0.651  -0.000  -0.048  -0.000  -0.048  -0.000  -0.066

  Average fulfillment of the sum rule on Im[epsilon] for q-point   19 :     95.18  [%]


--------------------------------------------------------------------------------
  q-point number 20        q = (-0.375000, 0.375000, 0.000000) [r.l.u.]
--------------------------------------------------------------------------------
  chi0(G,G') at the    1 th omega   0.0000   0.0000 [eV]
       1       2       3       4       5       6       7       8       9
    1 -18.517  -0.693  -2.771  -2.835  -2.835  -2.835  -2.835  -2.771  -0.693
        0.000  -0.693   2.771  -2.835   2.835  -2.835   2.835  -2.771   0.693

    2  -0.693 -18.755  -0.000   0.335   0.000   0.335   0.000  -0.088   0.000
        0.693   0.000  -2.432   0.000   0.156   0.000   0.156  -0.000  -1.152

  chi0(G,G') at the    2 th omega   0.0000  16.6039 [eV]
       1       2       3       4       5       6       7       8       9
    1  -4.762   0.071  -1.014  -0.741  -0.741  -0.741  -0.741  -1.014   0.071
        0.000   0.071   1.014  -0.741   0.741  -0.741   0.741  -1.014  -0.071

    2   0.071  -4.776  -0.000  -0.136  -0.000  -0.136  -0.000   0.008   0.000
       -0.071   0.000  -0.538   0.000  -0.047   0.000  -0.047   0.000  -0.046

  Average fulfillment of the sum rule on Im[epsilon] for q-point   20 :     95.18  [%]


--------------------------------------------------------------------------------
  q-point number 21        q = ( 0.500000, 0.500000, 0.000000) [r.l.u.]
--------------------------------------------------------------------------------
  chi0(G,G') at the    1 th omega   0.0000   0.0000 [eV]
       1       2       3       4       5       6       7       8       9
    1 -17.753  -2.876  -1.389  -1.389  -2.876  -1.389  -2.876  -2.876  -1.389
        0.000  -2.876   1.389  -1.389   2.876  -1.389   2.876  -2.876   1.389

    2  -2.876 -17.686  -0.000  -0.062  -0.000  -0.062   0.000   0.310   0.000
        2.876   0.000  -1.964  -0.000   0.267  -0.000   0.267  -0.000  -0.168

  chi0(G,G') at the    2 th omega   0.0000  16.6039 [eV]
       1       2       3       4       5       6       7       8       9
    1  -4.424  -0.911  -0.230  -0.230  -0.911  -0.230  -0.911  -0.911  -0.230
        0.000  -0.911   0.230  -0.230   0.911  -0.230   0.911  -0.911   0.230

    2  -0.911  -9.019   0.000  -0.035   0.000  -0.035   0.000   0.119   0.000
        0.911   0.000  -0.557  -0.000  -0.043  -0.000  -0.043  -0.000  -0.069

  Average fulfillment of the sum rule on Im[epsilon] for q-point   21 :     95.18  [%]


--------------------------------------------------------------------------------
  q-point number 22        q = ( 0.375000, 0.250000, 0.125000) [r.l.u.]
--------------------------------------------------------------------------------
  chi0(G,G') at the    1 th omega   0.0000   0.0000 [eV]
       1       2       3       4       5       6       7       8       9
    1 -12.814  -2.459   0.349  -1.387  -2.326   0.349  -2.459  -2.326  -1.387
        0.000  -2.459  -0.349  -1.387   2.326   0.349   2.459  -2.326   1.387

    2  -2.459 -18.656   0.000  -0.407   0.000  -0.237   0.000  -0.327   0.000
        2.459   0.000  -3.149   0.000   0.184  -0.000   0.287   0.000  -0.154

  chi0(G,G') at the    2 th omega   0.0000  16.6039 [eV]
       1       2       3       4       5       6       7       8       9
    1  -1.750  -0.561   0.228  -0.146  -0.393   0.228  -0.561  -0.393  -0.146
        0.000  -0.561  -0.228  -0.146   0.393   0.228   0.561  -0.393   0.146

    2  -0.561  -8.865  -0.000  -0.007   0.000  -0.038   0.000   0.036  -0.000
        0.561   0.000  -0.858   0.000  -0.068  -0.000  -0.065   0.000  -0.084

  Average fulfillment of the sum rule on Im[epsilon] for q-point   22 :     95.20  [%]


--------------------------------------------------------------------------------
  q-point number 23        q = ( 0.500000, 0.250000, 0.125000) [r.l.u.]
--------------------------------------------------------------------------------
  chi0(G,G') at the    1 th omega   0.0000   0.0000 [eV]
       1       2       3       4       5       6       7       8       9
    1 -15.700  -2.552   0.597  -1.974  -2.697  -0.737  -2.804  -2.522  -1.902
        0.000  -2.552  -0.597  -1.974   2.697  -0.737   2.804  -2.522   1.902

    2  -2.552 -17.914   0.000  -0.073  -0.000  -0.080  -0.000  -0.025   0.000
        2.552   0.000  -3.001  -0.000   0.248   0.000   0.334   0.000  -0.046

  chi0(G,G') at the    2 th omega   0.0000  16.6039 [eV]
       1       2       3       4       5       6       7       8       9
    1  -2.803  -0.765   0.326  -0.267  -0.581   0.078  -0.714  -0.495  -0.391
        0.000  -0.765  -0.326  -0.267   0.581   0.078   0.714  -0.495   0.391

    2  -0.765  -9.016   0.000   0.023  -0.000  -0.010  -0.000   0.063   0.000
        0.765   0.000  -0.775  -0.000  -0.056   0.000  -0.057   0.000  -0.064

  Average fulfillment of the sum rule on Im[epsilon] for q-point   23 :     95.19  [%]


--------------------------------------------------------------------------------
  q-point number 24        q = (-0.375000, 0.250000, 0.125000) [r.l.u.]
--------------------------------------------------------------------------------
  chi0(G,G') at the    1 th omega   0.0000   0.0000 [eV]
       1       2       3       4       5       6       7       8       9
    1 -17.396   0.653  -2.669  -2.863  -2.360  -2.195  -2.675  -2.913  -1.486
        0.000   0.653   2.669  -2.863   2.360  -2.195   2.675  -2.913   1.486

    2   0.653 -17.396  -0.000  -0.014   0.000   1.450  -0.000  -0.398  -0.000
       -0.653   0.000  -2.894   0.000  -0.287  -0.000  -0.185  -0.000  -1.036

  chi0(G,G') at the    2 th omega   0.0000  16.6039 [eV]
       1       2       3       4       5       6       7       8       9
    1  -4.003   0.359  -0.941  -0.769  -0.429  -0.627  -0.628  -0.871  -0.131
        0.000   0.359   0.941  -0.769   0.429  -0.627   0.628  -0.871   0.131

    2   0.359  -4.003   0.000  -0.101   0.000  -0.104  -0.000  -0.054  -0.000
       -0.359   0.000  -0.659   0.000  -0.068  -0.000  -0.091  -0.000  -0.072

  Average fulfillment of the sum rule on Im[epsilon] for q-point   24 :     95.19  [%]


--------------------------------------------------------------------------------
  q-point number 25        q = ( 0.500000, 0.375000, 0.125000) [r.l.u.]
--------------------------------------------------------------------------------
  chi0(G,G') at the    1 th omega   0.0000   0.0000 [eV]
       1       2       3       4       5       6       7       8       9
    1 -16.619  -2.852  -0.637  -1.638  -2.678  -0.637  -2.852  -2.678  -1.638
        0.000  -2.852   0.637  -1.638   2.678  -0.637   2.852  -2.678   1.638

    2  -2.852 -18.084   0.000  -0.155   0.000  -0.300  -0.000   0.036   0.000
        2.852   0.000  -2.526   0.000   0.262   0.000   0.380  -0.000  -0.114

  chi0(G,G') at the    2 th omega   0.0000  16.6039 [eV]
       1       2       3       4       5       6       7       8       9
    1  -3.125  -0.775   0.107  -0.255  -0.658   0.107  -0.775  -0.658  -0.255
        0.000  -0.775  -0.107  -0.255   0.658   0.107   0.775  -0.658   0.255

    2  -0.775  -9.003  -0.000  -0.002   0.000  -0.034  -0.000   0.081   0.000
        0.775   0.000  -0.719  -0.000  -0.050  -0.000  -0.054   0.000  -0.070

  Average fulfillment of the sum rule on Im[epsilon] for q-point   25 :     95.19  [%]


--------------------------------------------------------------------------------
  q-point number 26        q = (-0.375000, 0.375000, 0.125000) [r.l.u.]
--------------------------------------------------------------------------------
  chi0(G,G') at the    1 th omega   0.0000   0.0000 [eV]
       1       2       3       4       5       6       7       8       9
    1 -18.925  -0.577  -2.846  -2.966  -2.629  -2.555  -2.922  -2.864  -1.415
        0.000  -0.577   2.846  -2.966   2.629  -2.555   2.922  -2.864   1.415

    2  -0.577 -18.371   0.000  -0.068  -0.000   1.013  -0.000  -0.325  -0.000
        0.577   0.000  -2.437  -0.000  -0.030   0.000   0.138   0.000  -0.687

  chi0(G,G') at the    2 th omega   0.0000  16.6039 [eV]
       1       2       3       4       5       6       7       8       9
    1  -4.891   0.156  -1.038  -0.852  -0.642  -0.722  -0.793  -1.013  -0.090
        0.000   0.156   1.038  -0.852   0.642  -0.722   0.793  -1.013   0.090

    2   0.156  -4.167  -0.000  -0.122  -0.000  -0.124  -0.000  -0.013   0.000
       -0.156   0.000  -0.533  -0.000  -0.030   0.000  -0.064   0.000  -0.033

  Average fulfillment of the sum rule on Im[epsilon] for q-point   26 :     95.19  [%]


--------------------------------------------------------------------------------
  q-point number 27        q = (-0.250000, 0.375000, 0.125000) [r.l.u.]
--------------------------------------------------------------------------------
  chi0(G,G') at the    1 th omega   0.0000   0.0000 [eV]
       1       2       3       4       5       6       7       8       9
    1 -17.827  -0.601  -2.801  -2.821  -2.348  -2.348  -2.821  -2.801  -0.601
        0.000  -0.601   2.801  -2.821   2.348  -2.348   2.821  -2.801   0.601

    2  -0.601 -19.283   0.000   0.058   0.000   1.118   0.000  -0.174   0.000
        0.601   0.000  -2.554  -0.000  -0.088   0.000   0.086  -0.000  -1.128

  chi0(G,G') at the    2 th omega   0.0000  16.6039 [eV]
       1       2       3       4       5       6       7       8       9
    1  -3.801   0.146  -0.889  -0.677  -0.502  -0.502  -0.677  -0.889   0.146
        0.000   0.146   0.889  -0.677   0.502  -0.502   0.677  -0.889  -0.146

    2   0.146  -5.256   0.000  -0.118  -0.000  -0.116   0.000  -0.016   0.000
       -0.146   0.000  -0.654  -0.000  -0.058  -0.000  -0.080   0.000  -0.076

  Average fulfillment of the sum rule on Im[epsilon] for q-point   27 :     95.18  [%]


--------------------------------------------------------------------------------
  q-point number 28        q = (-0.375000, 0.500000, 0.125000) [r.l.u.]
--------------------------------------------------------------------------------
  chi0(G,G') at the    1 th omega   0.0000   0.0000 [eV]
       1       2       3       4       5       6       7       8       9
    1 -19.552  -1.394  -2.879  -3.033  -2.758  -2.758  -3.033  -2.879  -1.394
        0.000  -1.394   2.879  -3.033   2.758  -2.758   3.033  -2.879   1.394

    2  -1.394 -18.626  -0.000  -0.213   0.000   0.537   0.000  -0.031   0.000
        1.394   0.000  -1.876   0.000   0.000   0.000   0.255   0.000  -0.000

  chi0(G,G') at the    2 th omega   0.0000  16.6039 [eV]
       1       2       3       4       5       6       7       8       9
    1  -5.829  -0.098  -1.132  -0.949  -0.837  -0.837  -0.949  -1.132  -0.098
        0.000  -0.098   1.132  -0.949   0.837  -0.837   0.949  -1.132   0.098

    2  -0.098  -4.604  -0.000  -0.137   0.000  -0.143   0.000   0.038   0.000
        0.098   0.000  -0.385  -0.000   0.000   0.000  -0.036   0.000  -0.000

  Average fulfillment of the sum rule on Im[epsilon] for q-point   28 :     95.19  [%]


--------------------------------------------------------------------------------
  q-point number 29        q = (-0.250000, 0.500000, 0.250000) [r.l.u.]
--------------------------------------------------------------------------------
  chi0(G,G') at the    1 th omega   0.0000   0.0000 [eV]
       1       2       3       4       5       6       7       8       9
    1 -19.554  -1.521  -2.964  -2.929  -2.455  -2.455  -2.929  -2.964  -1.521
        0.000  -1.521   2.964  -2.929   2.455  -2.455   2.929  -2.964   1.521

    2  -1.521 -19.554  -0.000  -0.150  -0.000   1.316  -0.000  -0.231   0.000
        1.521   0.000  -2.086   0.000   0.000  -0.000   0.122   0.000   0.000

  chi0(G,G') at the    2 th omega   0.0000  16.6039 [eV]
       1       2       3       4       5       6       7       8       9
    1  -5.106  -0.050  -1.045  -0.903  -0.631  -0.631  -0.903  -1.045  -0.050
        0.000  -0.050   1.045  -0.903   0.631  -0.631   0.903  -1.045   0.050

    2  -0.050  -5.106  -0.000  -0.115  -0.000  -0.121  -0.000   0.006  -0.000
        0.050   0.000  -0.489   0.000   0.000  -0.000  -0.062   0.000   0.000

  Average fulfillment of the sum rule on Im[epsilon] for q-point   29 :     95.19  [%]

================================================================================
== DATASET  2 ==================================================================
-   mpi_nproc: 256, omp_nthreads: -1 (-1 if OMP is not activated)


--- !DatasetInfo
iteration_state: {dtset: 2, }
dimensions: {natom: 2, nkpt: 29, mband: 300, nsppol: 1, nspinor: 1, nspden: 1, mpw: 995, }
cutoff_energies: {ecut:  18.0, pawecutdg:  -1.0, }
electrons: {nelect:   8.00000000E+00, charge:   0.00000000E+00, occopt:   1.00000000E+00, tsmear:   1.00000000E-02, }
meta: {optdriver: 4, gwcalctyp: 0, }
...

 mkfilename: getwfk from: ../outdata_gs_DS2_WFK

 mkfilename : getscr/=0, take file _SCR from output of DATASET   1.

 Exchange-correlation functional for the present dataset will be:
  GGA: Perdew-Burke-Ernzerhof functional - ixc=11
 Citation for XC functional:
  J.P.Perdew, K.Burke, M.Ernzerhof, PRL 77, 3865 (1996)

 SIGMA: Calculation of the GW corrections 

 Based on a program developped by R.W. Godby, V. Olevano, G. Onida, and L. Reining.
 Incorporated in ABINIT by V. Olevano, G.-M. Rignanese, and M. Torrent.
.Using single precision arithmetic ; gwpc =  4

 Real(R)+Recip(G) space primitive vectors, cartesian coordinates (Bohr,Bohr^-1):
 R(1)=  0.0000000  5.1300000  5.1300000  G(1)= -0.0974659  0.0974659  0.0974659
 R(2)=  5.1300000  0.0000000  5.1300000  G(2)=  0.0974659 -0.0974659  0.0974659
 R(3)=  5.1300000  5.1300000  0.0000000  G(3)=  0.0974659  0.0974659 -0.0974659
 Unit cell volume ucvol=  2.7001139E+02 bohr^3
 Angles (23,13,12)=  6.00000000E+01  6.00000000E+01  6.00000000E+01 degrees
--------------------------------------------------------------------------------

 ==== K-mesh for the wavefunctions ====
 Number of points in the irreducible wedge :    29
 Reduced coordinates and weights : 

     1)     0.00000000E+00  0.00000000E+00  0.00000000E+00       0.00195
     2)     1.25000000E-01  0.00000000E+00  0.00000000E+00       0.01563
     3)     2.50000000E-01  0.00000000E+00  0.00000000E+00       0.01563
     4)     3.75000000E-01  0.00000000E+00  0.00000000E+00       0.01563
     5)     5.00000000E-01  0.00000000E+00  0.00000000E+00       0.00781
     6)     1.25000000E-01  1.25000000E-01  0.00000000E+00       0.01172
     7)     2.50000000E-01  1.25000000E-01  0.00000000E+00       0.04688
     8)     3.75000000E-01  1.25000000E-01  0.00000000E+00       0.04688
     9)     5.00000000E-01  1.25000000E-01  0.00000000E+00       0.04688
    10)    -3.75000000E-01  1.25000000E-01  0.00000000E+00       0.04688
    11)    -2.50000000E-01  1.25000000E-01  0.00000000E+00       0.04688
    12)    -1.25000000E-01  1.25000000E-01  0.00000000E+00       0.02344
    13)     2.50000000E-01  2.50000000E-01  0.00000000E+00       0.01172
    14)     3.75000000E-01  2.50000000E-01  0.00000000E+00       0.04688
    15)     5.00000000E-01  2.50000000E-01  0.00000000E+00       0.04688
    16)    -3.75000000E-01  2.50000000E-01  0.00000000E+00       0.04688
    17)    -2.50000000E-01  2.50000000E-01  0.00000000E+00       0.02344
    18)     3.75000000E-01  3.75000000E-01  0.00000000E+00       0.01172
    19)     5.00000000E-01  3.75000000E-01  0.00000000E+00       0.04688
    20)    -3.75000000E-01  3.75000000E-01  0.00000000E+00       0.02344
    21)     5.00000000E-01  5.00000000E-01  0.00000000E+00       0.00586
    22)     3.75000000E-01  2.50000000E-01  1.25000000E-01       0.04688
    23)     5.00000000E-01  2.50000000E-01  1.25000000E-01       0.09375
    24)    -3.75000000E-01  2.50000000E-01  1.25000000E-01       0.04688
    25)     5.00000000E-01  3.75000000E-01  1.25000000E-01       0.04688
    26)    -3.75000000E-01  3.75000000E-01  1.25000000E-01       0.09375
    27)    -2.50000000E-01  3.75000000E-01  1.25000000E-01       0.04688
    28)    -3.75000000E-01  5.00000000E-01  1.25000000E-01       0.02344
    29)    -2.50000000E-01  5.00000000E-01  2.50000000E-01       0.01172

 Together with 48 symmetry operations and time-reversal symmetry 
 yields   512 points in the full Brillouin Zone.


 ==== Q-mesh for screening function ====
 Number of points in the irreducible wedge :    29
 Reduced coordinates and weights : 

     1)     0.00000000E+00  0.00000000E+00  0.00000000E+00       0.00195
     2)     1.25000000E-01  0.00000000E+00  0.00000000E+00       0.01563
     3)     2.50000000E-01  0.00000000E+00  0.00000000E+00       0.01563
     4)     3.75000000E-01  0.00000000E+00  0.00000000E+00       0.01563
     5)     5.00000000E-01  0.00000000E+00  0.00000000E+00       0.00781
     6)     1.25000000E-01  1.25000000E-01  0.00000000E+00       0.01172
     7)     2.50000000E-01  1.25000000E-01  0.00000000E+00       0.04688
     8)     3.75000000E-01  1.25000000E-01  0.00000000E+00       0.04688
     9)     5.00000000E-01  1.25000000E-01  0.00000000E+00       0.04688
    10)    -3.75000000E-01  1.25000000E-01  0.00000000E+00       0.04688
    11)    -2.50000000E-01  1.25000000E-01  0.00000000E+00       0.04688
    12)    -1.25000000E-01  1.25000000E-01  0.00000000E+00       0.02344
    13)     2.50000000E-01  2.50000000E-01  0.00000000E+00       0.01172
    14)     3.75000000E-01  2.50000000E-01  0.00000000E+00       0.04688
    15)     5.00000000E-01  2.50000000E-01  0.00000000E+00       0.04688
    16)    -3.75000000E-01  2.50000000E-01  0.00000000E+00       0.04688
    17)    -2.50000000E-01  2.50000000E-01  0.00000000E+00       0.02344
    18)     3.75000000E-01  3.75000000E-01  0.00000000E+00       0.01172
    19)     5.00000000E-01  3.75000000E-01  0.00000000E+00       0.04688
    20)    -3.75000000E-01  3.75000000E-01  0.00000000E+00       0.02344
    21)     5.00000000E-01  5.00000000E-01  0.00000000E+00       0.00586
    22)     3.75000000E-01  2.50000000E-01  1.25000000E-01       0.04688
    23)     5.00000000E-01  2.50000000E-01  1.25000000E-01       0.09375
    24)    -3.75000000E-01  2.50000000E-01  1.25000000E-01       0.04688
    25)     5.00000000E-01  3.75000000E-01  1.25000000E-01       0.04688
    26)    -3.75000000E-01  3.75000000E-01  1.25000000E-01       0.09375
    27)    -2.50000000E-01  3.75000000E-01  1.25000000E-01       0.04688
    28)    -3.75000000E-01  5.00000000E-01  1.25000000E-01       0.02344
    29)    -2.50000000E-01  5.00000000E-01  2.50000000E-01       0.01172

 Together with 48 symmetry operations and time-reversal symmetry 
 yields   512 points in the full Brillouin Zone.


 setmesh: FFT mesh size selected  =    36x   36x   36
          total number of points  =        46656

 Number of electrons calculated from density =    8.0000; Expected =    8.0000
 average of density, n =  0.029628
 r_s =    2.0048
 omega_plasma =   16.6039 [eV]


 === KS Band Gaps ===
  >>>> For spin  1
   Minimum direct gap =   2.5559 [eV], located at k-point      :   0.0000  0.0000  0.0000
   Fundamental gap    =   0.6117 [eV], Top of valence bands at :   0.0000  0.0000  0.0000
                                       Bottom of conduction at :   0.3750  0.3750  0.0000
 SIGMA fundamental parameters:
 PLASMON POLE MODEL  1
 number of plane-waves for SigmaX                 2733
 number of plane-waves for SigmaC and W            531
 number of plane-waves for wavefunctions           941
 number of bands                                   300
 number of independent spin polarizations            1
 number of spinorial components                      1
 number of k-points in IBZ                          29
 number of q-points in IBZ                          29
 number of symmetry operations                      48
 number of k-points in BZ                          512
 number of q-points in BZ                          512
 number of frequencies for dSigma/dE                 9
 frequency step for dSigma/dE [eV]                0.25
 number of omega for Sigma on real axis              0
 max omega for Sigma on real axis  [eV]           0.00
 zcut for avoiding poles [eV]                     0.10

 EPSILON^-1 parameters (SCR file):
 dimension of the eps^-1 matrix on file            531
 dimension of the eps^-1 matrix used               531
 number of plane-waves for wavefunctions           941
 number of bands                                   300
 number of q-points in IBZ                          29
 number of frequencies                               2
 number of real frequencies                          1
 number of imag frequencies                          1

 matrix elements of self-energy operator (all in [eV])

 Perturbative Calculation

--- !SelfEnergy_ee
iteration_state: {dtset: 2, }
kpoint     : [   0.000,    0.000,    0.000, ]
spin       : 1
KS_gap     :    2.556
QP_gap     :    3.220
Delta_QP_KS:    0.664
data: !SigmaeeData |
     Band     E0 <VxcDFT>   SigX SigC(E0)      Z dSigC/dE  Sig(E)    E-E0       E
        1  -7.614 -10.470 -17.579   7.108   0.552  -0.811 -10.471  -0.001  -7.614
        2   4.356 -11.318 -12.733   0.520   0.763  -0.310 -12.001  -0.683   3.672
        3   4.356 -11.318 -12.733   0.520   0.763  -0.310 -12.001  -0.683   3.672
        4   4.356 -11.318 -12.733   0.520   0.763  -0.310 -12.001  -0.683   3.672
        5   6.912 -10.034  -5.855  -4.203   0.764  -0.309 -10.053  -0.019   6.893
        6   6.912 -10.034  -5.855  -4.203   0.764  -0.309 -10.053  -0.019   6.893
        7   6.912 -10.034  -5.855  -4.203   0.764  -0.309 -10.053  -0.019   6.893
...


--- !SelfEnergy_ee
iteration_state: {dtset: 2, }
kpoint     : [   0.500,    0.500,    0.000, ]
spin       : 1
KS_gap     :    3.564
QP_gap     :    4.198
Delta_QP_KS:    0.633
data: !SigmaeeData |
     Band     E0 <VxcDFT>   SigX SigC(E0)      Z dSigC/dE  Sig(E)    E-E0       E
        1  -3.469 -10.852 -16.095   4.499   0.667  -0.499 -11.348  -0.496  -3.965
        2  -3.469 -10.852 -16.095   4.499   0.667  -0.499 -11.348  -0.496  -3.964
        3   1.498 -10.592 -13.309   1.751   0.745  -0.343 -11.311  -0.720   0.779
        4   1.498 -10.592 -13.309   1.751   0.745  -0.343 -11.311  -0.720   0.779
        5   5.063  -8.989  -5.326  -3.773   0.780  -0.282  -9.075  -0.086   4.977
        6   5.063  -8.989  -5.326  -3.773   0.780  -0.282  -9.075  -0.086   4.977
...


== END DATASET(S) ==============================================================
================================================================================
  
 -outvars: echo values of variables after computation  --------
            acell      1.0260000000E+01  1.0260000000E+01  1.0260000000E+01 Bohr
              amu      2.80855000E+01
             bdgw           1       5       1       5
           diemac      1.20000000E+01
             ecut      1.80000000E+01 Hartree
          ecuteps      1.20000000E+01 Hartree
         ecutsigx      3.60000000E+01 Hartree
          ecutwfn      1.80000000E+01 Hartree
           etotal1     0.0000000000E+00
           etotal2     0.0000000000E+00
            fcart1     0.0000000000E+00  0.0000000000E+00  0.0000000000E+00
                       0.0000000000E+00  0.0000000000E+00  0.0000000000E+00
            fcart2     0.0000000000E+00  0.0000000000E+00  0.0000000000E+00
                       0.0000000000E+00  0.0000000000E+00  0.0000000000E+00
-          fftalg         312
           getscr1          0
           getscr2         -1
           istwfk        1    0    0    0    1    0    0    0    0    0
                         0    0    0    0    0    0    0    0    0    0
                         1    0    0    0    0    0    0    0    0
              ixc          11
           jdtset        1    2
              kpt      0.00000000E+00  0.00000000E+00  0.00000000E+00
                       1.25000000E-01  0.00000000E+00  0.00000000E+00
                       2.50000000E-01  0.00000000E+00  0.00000000E+00
                       3.75000000E-01  0.00000000E+00  0.00000000E+00
                       5.00000000E-01  0.00000000E+00  0.00000000E+00
                       1.25000000E-01  1.25000000E-01  0.00000000E+00
                       2.50000000E-01  1.25000000E-01  0.00000000E+00
                       3.75000000E-01  1.25000000E-01  0.00000000E+00
                       5.00000000E-01  1.25000000E-01  0.00000000E+00
                      -3.75000000E-01  1.25000000E-01  0.00000000E+00
                      -2.50000000E-01  1.25000000E-01  0.00000000E+00
                      -1.25000000E-01  1.25000000E-01  0.00000000E+00
                       2.50000000E-01  2.50000000E-01  0.00000000E+00
                       3.75000000E-01  2.50000000E-01  0.00000000E+00
                       5.00000000E-01  2.50000000E-01  0.00000000E+00
                      -3.75000000E-01  2.50000000E-01  0.00000000E+00
                      -2.50000000E-01  2.50000000E-01  0.00000000E+00
                       3.75000000E-01  3.75000000E-01  0.00000000E+00
                       5.00000000E-01  3.75000000E-01  0.00000000E+00
                      -3.75000000E-01  3.75000000E-01  0.00000000E+00
                       5.00000000E-01  5.00000000E-01  0.00000000E+00
                       3.75000000E-01  2.50000000E-01  1.25000000E-01
                       5.00000000E-01  2.50000000E-01  1.25000000E-01
                      -3.75000000E-01  2.50000000E-01  1.25000000E-01
                       5.00000000E-01  3.75000000E-01  1.25000000E-01
                      -3.75000000E-01  3.75000000E-01  1.25000000E-01
                      -2.50000000E-01  3.75000000E-01  1.25000000E-01
                      -3.75000000E-01  5.00000000E-01  1.25000000E-01
                      -2.50000000E-01  5.00000000E-01  2.50000000E-01
            kptgw      0.00000000E+00  0.00000000E+00  0.00000000E+00
                       5.00000000E-01  5.00000000E-01  0.00000000E+00
         kptrlatt        8    0    0      0    8    0      0    0    8
          kptrlen      5.80393246E+01
P           mkmem           1
            natom           2
            nband         300
           ndtset           2
            ngfft          30      30      30
             nkpt          29
           nkptgw           2
           npweps         531
          npwsigx        2733
           npwwfn         941
            nstep          50
             nsym          48
           ntypat           1
              occ      2.000000  2.000000  2.000000  2.000000  0.000000  0.000000
                       0.000000  0.000000  0.000000  0.000000  0.000000  0.000000
                       0.000000  0.000000  0.000000  0.000000  0.000000  0.000000
                       0.000000  0.000000  0.000000  0.000000  0.000000  0.000000
                       0.000000  0.000000  0.000000  0.000000  0.000000  0.000000
                       0.000000  0.000000  0.000000  0.000000  0.000000  0.000000
                       0.000000  0.000000  0.000000  0.000000  0.000000  0.000000
                       0.000000  0.000000  0.000000  0.000000  0.000000  0.000000
                       0.000000  0.000000  0.000000  0.000000  0.000000  0.000000
                       0.000000  0.000000  0.000000  0.000000  0.000000  0.000000
                       0.000000  0.000000  0.000000  0.000000  0.000000  0.000000
                       0.000000  0.000000  0.000000  0.000000  0.000000  0.000000
                       0.000000  0.000000  0.000000  0.000000  0.000000  0.000000
                       0.000000  0.000000  0.000000  0.000000  0.000000  0.000000
                       0.000000  0.000000  0.000000  0.000000  0.000000  0.000000
                       0.000000  0.000000  0.000000  0.000000  0.000000  0.000000
                       0.000000  0.000000  0.000000  0.000000  0.000000  0.000000
                       0.000000  0.000000  0.000000  0.000000  0.000000  0.000000
                       0.000000  0.000000  0.000000  0.000000  0.000000  0.000000
                       0.000000  0.000000  0.000000  0.000000  0.000000  0.000000
                       0.000000  0.000000  0.000000  0.000000  0.000000  0.000000
                       0.000000  0.000000  0.000000  0.000000  0.000000  0.000000
                       0.000000  0.000000  0.000000  0.000000  0.000000  0.000000
                       0.000000  0.000000  0.000000  0.000000  0.000000  0.000000
                       0.000000  0.000000  0.000000  0.000000  0.000000  0.000000
                       0.000000  0.000000  0.000000  0.000000  0.000000  0.000000
                       0.000000  0.000000  0.000000  0.000000  0.000000  0.000000
                       0.000000  0.000000  0.000000  0.000000  0.000000  0.000000
                       0.000000  0.000000  0.000000  0.000000  0.000000  0.000000
                       0.000000  0.000000  0.000000  0.000000  0.000000  0.000000
                       0.000000  0.000000  0.000000  0.000000  0.000000  0.000000
                       0.000000  0.000000  0.000000  0.000000  0.000000  0.000000
                       0.000000  0.000000  0.000000  0.000000  0.000000  0.000000
                       0.000000  0.000000  0.000000  0.000000  0.000000  0.000000
                       0.000000  0.000000  0.000000  0.000000  0.000000  0.000000
                       0.000000  0.000000  0.000000  0.000000  0.000000  0.000000
                       0.000000  0.000000  0.000000  0.000000  0.000000  0.000000
                       0.000000  0.000000  0.000000  0.000000  0.000000  0.000000
                       0.000000  0.000000  0.000000  0.000000  0.000000  0.000000
                       0.000000  0.000000  0.000000  0.000000  0.000000  0.000000
                       0.000000  0.000000  0.000000  0.000000  0.000000  0.000000
                       0.000000  0.000000  0.000000  0.000000  0.000000  0.000000
                       0.000000  0.000000  0.000000  0.000000  0.000000  0.000000
                       0.000000  0.000000  0.000000  0.000000  0.000000  0.000000
                       0.000000  0.000000  0.000000  0.000000  0.000000  0.000000
                       0.000000  0.000000  0.000000  0.000000  0.000000  0.000000
                       0.000000  0.000000  0.000000  0.000000  0.000000  0.000000
                       0.000000  0.000000  0.000000  0.000000  0.000000  0.000000
                       0.000000  0.000000  0.000000  0.000000  0.000000  0.000000
                       0.000000  0.000000  0.000000  0.000000  0.000000  0.000000
        optdriver1          3
        optdriver2          4
            rprim      0.0000000000E+00  5.0000000000E-01  5.0000000000E-01
                       5.0000000000E-01  0.0000000000E+00  5.0000000000E-01
                       5.0000000000E-01  5.0000000000E-01  0.0000000000E+00
          spgroup         227
           strten1     0.0000000000E+00  0.0000000000E+00  0.0000000000E+00
                       0.0000000000E+00  0.0000000000E+00  0.0000000000E+00
           strten2     0.0000000000E+00  0.0000000000E+00  0.0000000000E+00
                       0.0000000000E+00  0.0000000000E+00  0.0000000000E+00
[...]
                       1 -1  0   0 -1  1   0 -1  0      -1  1  0   0  1 -1   0  1  0
                       0  0  1   1  0  0   0  1  0       0  0 -1  -1  0  0   0 -1  0
                      -1  1  0  -1  0  0  -1  0  1       1 -1  0   1  0  0   1  0 -1
                       0  0  1   0  1  0   1  0  0       0  0 -1   0 -1  0  -1  0  0
                       1 -1  0   0 -1  0   0 -1  1      -1  1  0   0  1  0   0  1 -1
                       0  0 -1   1  0 -1   0  1 -1       0  0  1  -1  0  1   0 -1  1
                      -1  1  0  -1  0  1  -1  0  0       1 -1  0   1  0 -1   1  0  0
           timopt          -1
            tnons      0.0000000  0.0000000  0.0000000     0.2500000  0.2500000  0.2500000
                       0.0000000  0.0000000  0.0000000     0.2500000  0.2500000  0.2500000
                       0.0000000  0.0000000  0.0000000     0.2500000  0.2500000  0.2500000
                       0.0000000  0.0000000  0.0000000     0.2500000  0.2500000  0.2500000
                       0.0000000  0.0000000  0.0000000     0.2500000  0.2500000  0.2500000
                       0.0000000  0.0000000  0.0000000     0.2500000  0.2500000  0.2500000
                       0.0000000  0.0000000  0.0000000     0.2500000  0.2500000  0.2500000
                       0.0000000  0.0000000  0.0000000     0.2500000  0.2500000  0.2500000
                       0.0000000  0.0000000  0.0000000     0.2500000  0.2500000  0.2500000
                       0.0000000  0.0000000  0.0000000     0.2500000  0.2500000  0.2500000
                       0.0000000  0.0000000  0.0000000     0.2500000  0.2500000  0.2500000
                       0.0000000  0.0000000  0.0000000     0.2500000  0.2500000  0.2500000
                       0.0000000  0.0000000  0.0000000     0.2500000  0.2500000  0.2500000
                       0.0000000  0.0000000  0.0000000     0.2500000  0.2500000  0.2500000
                       0.0000000  0.0000000  0.0000000     0.2500000  0.2500000  0.2500000
                       0.0000000  0.0000000  0.0000000     0.2500000  0.2500000  0.2500000
                       0.0000000  0.0000000  0.0000000     0.2500000  0.2500000  0.2500000
                       0.0000000  0.0000000  0.0000000     0.2500000  0.2500000  0.2500000
                       0.0000000  0.0000000  0.0000000     0.2500000  0.2500000  0.2500000
                       0.0000000  0.0000000  0.0000000     0.2500000  0.2500000  0.2500000
                       0.0000000  0.0000000  0.0000000     0.2500000  0.2500000  0.2500000
                       0.0000000  0.0000000  0.0000000     0.2500000  0.2500000  0.2500000
                       0.0000000  0.0000000  0.0000000     0.2500000  0.2500000  0.2500000
                       0.0000000  0.0000000  0.0000000     0.2500000  0.2500000  0.2500000
            typat      1  1
              wtk        0.00195    0.01563    0.01563    0.01563    0.00781    0.01172
                         0.04688    0.04688    0.04688    0.04688    0.04688    0.02344
                         0.01172    0.04688    0.04688    0.04688    0.02344    0.01172
                         0.04688    0.02344    0.00586    0.04688    0.09375    0.04688
                         0.04688    0.09375    0.04688    0.02344    0.01172
           xangst      0.0000000000E+00  0.0000000000E+00  0.0000000000E+00
                       1.3573395400E+00  1.3573395400E+00  1.3573395400E+00
            xcart      0.0000000000E+00  0.0000000000E+00  0.0000000000E+00
                       2.5650000000E+00  2.5650000000E+00  2.5650000000E+00
             xred      0.0000000000E+00  0.0000000000E+00  0.0000000000E+00
                       2.5000000000E-01  2.5000000000E-01  2.5000000000E-01
            znucl       14.00000

================================================================================

 Test the timer : 
  a combined call timab(*,1,tsec) + timab(*,2,tsec) is 
- CPU time =    6.1221E-07 sec,    Wall time =    6.1227E-07 sec

- Total cpu        time (s,m,h):      22998.9      383.31      6.389
- Total wall clock time (s,m,h):      23061.9      384.37      6.406
-
- For major independent code sections, cpu and wall times (sec),
-  as well as % of the time and number of calls for node 0
-
-<BEGIN_TIMER mpi_nprocs = 256, omp_nthreads = 1, mpi_rank = 0>
- cpu_time =           89.5, wall_time =           90.1
-
- routine                            cpu     %          wall     %      number of calls Gflops    Speedup Efficacity
-                                                                        (-1=no count)
- sigma/=fourdp                    21.768   0.1        21.930   0.1              1      -1.00        0.99       0.99
- wfd_read_wfk                      0.731   0.0         0.744   0.0              2      -1.00        0.98       0.98
- pspini                            0.247   0.0         0.250   0.0              2      -1.00        0.99       0.99
- abinit(2)                         0.157   0.0         0.161   0.0              1      -1.00        0.97       0.97
- timing timab                      0.119   0.0         0.119   0.0             14      -1.00        1.00       1.00
- invars2                           0.050   0.0         0.050   0.0              2      -1.00        1.00       1.00
- others (149)                      0.066   0.0         0.066   0.0             -1      -1.00        1.00       1.00
-<END_TIMER>
-
- subtotal                         23.138   0.1        23.320   0.1                                  0.99       0.99

- For major independent code sections, cpu and wall times (sec),
- as well as % of the total time and number of calls 

-<BEGIN_TIMER mpi_nprocs = 256, omp_nthreads = 1, mpi_rank = world>
- cpu_time =       22998.9, wall_time =       23061.9
-
- routine                            cpu     %          wall     %      number of calls Gflops    Speedup Efficacity
-                                                                        (-1=no count)
- sigma/=fourdp                  5542.845  24.1      5592.869  24.3            256      -1.00        0.99       0.99
- wfd_read_wfk                    189.530   0.8       189.753   0.8            512      -1.00        1.00       1.00
- pspini                           62.285   0.3        62.649   0.3            512      -1.00        0.99       0.99
- timing timab                     29.872   0.1        29.876   0.1           3584      -1.00        1.00       1.00
- abinit(2)                        17.444   0.1        17.773   0.1            256      -1.00        0.98       0.98
- invars2                          12.296   0.1        12.300   0.1            512      -1.00        1.00       1.00
- ewald                             4.987   0.0         4.989   0.0            512      -1.00        1.00       1.00
- xc:pot/=fourdp                    4.417   0.0         4.441   0.0            768      -1.00        0.99       0.99
- fourdp                            4.003   0.0         4.008   0.0           8704      -1.00        1.00       1.00
- mkffnl                            1.346   0.0         1.322   0.0           7424      -1.00        1.02       1.02
- mkcore                            1.062   0.0         1.063   0.0            512      -1.00        1.00       1.00
- kpgsph                            0.628   0.0         0.624   0.0          76858      -1.00        1.01       1.01
- symrhg(no FFT)                    0.323   0.0         0.324   0.0            512      -1.00        1.00       1.00
- others (142)                      0.000   0.0         0.000   0.0             -1      -1.00        0.00       0.00
-<END_TIMER>

- subtotal                       5871.038  25.5      5921.992  25.7                                  0.99       0.99

 Partitioning of abinit
- abinit                        22998.851 100.0     23061.943 100.0            256                   1.00       1.00
 
- abinit(1)                        42.767   0.2        45.586   0.2            256                   0.94       0.94
- abinit(2)                        17.444   0.1        17.773   0.1            256                   0.98       0.98
- indefo+macroin+invars2m          13.154   0.1        13.160   0.1            256                   1.00       1.00
- abinit(4)                        62.062   0.3        65.405   0.3            256                   0.95       0.95
- abinit(5)                         8.849   0.0         8.935   0.0            256                   0.99       0.99
- driver                        22883.777  99.5     22941.289  99.5            256                   1.00       1.00
- timing timab                     29.872   0.1        29.876   0.1           3584                   1.00       1.00

- subtotal                      22998.851 100.0     23061.943 100.0                                  1.00       1.00

 Partitioning of driver
- driver                        22883.777  99.5     22941.289  99.5            256                   1.00       1.00
 
- screening                     17312.708  75.3     17320.002  75.1            256                   1.00       1.00
- sigma                          5542.926  24.1      5592.950  24.3            256                   0.99       0.99
- (other)                          25.483   0.1        25.502   0.1             -1                   1.00       1.00

- subtotal                      22883.777  99.5     22941.289  99.5                                  1.00       1.00

 Partitioning of screening
- screening                     17312.708  75.3     17320.002  75.1            256                   1.00       1.00
 
- screening(init1)                283.225   1.2       283.984   1.2            256                   1.00       1.00
- screening(wfs)                  156.184   0.7       156.487   0.7            256                   1.00       1.00
- screening(1)                     38.913   0.2        38.925   0.2            256                   1.00       1.00
- screening(density)               26.269   0.1        29.627   0.1            256                   0.89       0.89
- screening(2)                      6.361   0.0         6.389   0.0            256                   1.00       1.00
- screening(cchi0q0)              219.173   1.0       219.281   1.0            256                   1.00       1.00
- screening(cchi0)              16189.852  70.4     16192.214  70.2           7168                   1.00       1.00
- screening(q-loop,end)           389.120   1.7       389.321   1.7           7424                   1.00       1.00

- subtotal                      17309.452  75.3     17316.798  75.1                                  1.00       1.00

 Partitioning of sigma
- sigma                          5542.926  24.1      5592.950  24.3            256                   0.99       0.99
 
- sigma(Init1)                     18.944   0.1        18.950   0.1            512                   1.00       1.00
- setup_sigma                     155.229   0.7       155.477   0.7            256                   1.00       1.00
- sigma(rdkss)                     53.392   0.2        53.404   0.2            256                   1.00       1.00
- sigma(Init2)                      4.885   0.0         4.889   0.0            256                   1.00       1.00
- sigma(make_vhxc)                 23.545   0.1        23.549   0.1            256                   1.00       1.00
- sigma(hqp_init)                  18.642   0.1        18.654   0.1            256                   1.00       1.00
- sigma(getW)                     206.662   0.9       255.285   1.1            256                   0.81       0.81
- sigma(calc_sigx_me)             312.695   1.4       312.758   1.4            256                   1.00       1.00
- sigma(calc_sigc_me)            4732.309  20.6      4732.867  20.5            512                   1.00       1.00

- subtotal                       5531.523  24.1      5581.248  24.2                                  0.99       0.99

 Partitioning of calc_sigc_me
- calc_sigc_me                   4732.307  20.6      4732.867  20.5            512                   1.00       1.00
 
- calc_sigc_me(Init)              108.308   0.5       108.365   0.5            512                   1.00       1.00
- calc_sigc_me(Init q)             24.404   0.1        24.478   0.1          22528                   1.00       1.00
- calc_sigc_me(loop)             2636.317  11.5      2636.614  11.4          22528                   1.00       1.00
- calc_sigc_me(xmpi_sum)         1959.987   8.5      1960.194   8.5            512                   1.00       1.00

- subtotal                       4730.054  20.6      4730.692  20.5                                  1.00       1.00

 Partitioning of  fourdp (upwards partitioning)
- fourdp                            4.003   0.0         4.008   0.0           8704                   1.00       1.00
 

- subtotal                          4.003   0.0         4.008   0.0                                  1.00       1.00
-
-Synchronisation (=leave_test) and MPI calls 
- communic.MPI                      3.053   0.0         3.114   0.0            256                   0.98       0.98
-
- subtotal                          0.000   0.0         0.000   0.0                                  0.00       0.00

 Additional information
- timana(1)                         0.241   0.0         0.245   0.0            256                   0.98       0.98
- total timab                      30.227   0.1        30.231   0.1       50404850                   1.00       1.00
- xc:fourdp                         2.062   0.0         2.056   0.0           6144                   1.00       1.00
- calc_sigc_me(1)             2110364.5349176.0  66281815.588******          26400                   0.03       0.03
- calc_sigc_me(rho_tw_g)           56.203   0.2        56.247   0.2          26400                   1.00       1.00
- calc_sigc_me(2)                2575.990  11.2      2576.599  11.2         167100                   1.00       1.00
- calc_sigc_me(sigma_me)            0.608   0.0         0.608   0.0         167100                   1.00       1.00
- cchi0                         16189.551  70.4     16191.956  70.2           7168                   1.00       1.00

 timana : in multi dataset mode, the more detailed analysis is not done.

================================================================================

 Suggested references for the acknowledgment of ABINIT usage.

 The users of ABINIT have little formal obligations with respect to the ABINIT group
 (those specified in the GNU General Public License, http://www.gnu.org/copyleft/gpl.txt).
 However, it is common practice in the scientific literature,
 to acknowledge the efforts of people that have made the research possible.
 In this spirit, please find below suggested citations of work written by ABINIT developers,
 corresponding to implementations inside of ABINIT that you have used in the present run.
 Note also that it will be of great value to readers of publications presenting these results,
 to read papers enabling them to understand the theoretical formalism and details
 of the ABINIT implementation.
 For information on why they are suggested, see also https://docs.abinit.org/theory/acknowledgments.
-
- [1] The Abinit project: Impact, environment and recent developments.
- Computer Phys. Comm. 248, 107042 (2020).
- X.Gonze, B. Amadon, G. Antonius, F.Arnardi, L.Baguet, J.-M.Beuken,
- J.Bieder, F.Bottin, J.Bouchet, E.Bousquet, N.Brouwer, F.Bruneval,
- G.Brunin, T.Cavignac, J.-B. Charraud, Wei Chen, M.Cote, S.Cottenier,
- J.Denier, G.Geneste, Ph.Ghosez, M.Giantomassi, Y.Gillet, O.Gingras,
- D.R.Hamann, G.Hautier, Xu He, N.Helbig, N.Holzwarth, Y.Jia, F.Jollet,
- W.Lafargue-Dit-Hauret, K.Lejaeghere, M.A.L.Marques, A.Martin, C.Martins,
- H.P.C. Miranda, F.Naccarato, K. Persson, G.Petretto, V.Planes, Y.Pouillon,
- S.Prokhorenko, F.Ricci, G.-M.Rignanese, A.H.Romero, M.M.Schmitt, M.Torrent,
- M.J.van Setten, B.Van Troeye, M.J.Verstraete, G.Zerah and J.W.Zwanzig
- Comment: the fifth generic paper describing the ABINIT project.
- Note that a version of this paper, that is not formatted for Computer Phys. Comm. 
- is available at https://www.abinit.org/sites/default/files/ABINIT20.pdf .
- The licence allows the authors to put it on the Web.
- DOI and bibtex: see https://docs.abinit.org/theory/bibliography/#gonze2020
-
- [2] Optimized norm-conserving Vanderbilt pseudopotentials.
- D.R. Hamann, Phys. Rev. B 88, 085117 (2013).
- Comment: Some pseudopotential generated using the ONCVPSP code were used.
- DOI and bibtex: see https://docs.abinit.org/theory/bibliography/#hamann2013
-
- [3] ABINIT: Overview, and focus on selected capabilities
- J. Chem. Phys. 152, 124102 (2020).
- A. Romero, D.C. Allan, B. Amadon, G. Antonius, T. Applencourt, L.Baguet,
- J.Bieder, F.Bottin, J.Bouchet, E.Bousquet, F.Bruneval,
- G.Brunin, D.Caliste, M.Cote,
- J.Denier, C. Dreyer, Ph.Ghosez, M.Giantomassi, Y.Gillet, O.Gingras,
- D.R.Hamann, G.Hautier, F.Jollet, G. Jomard,
- A.Martin, 
- H.P.C. Miranda, F.Naccarato, G.Petretto, N.A. Pike, V.Planes,
- S.Prokhorenko, T. Rangel, F.Ricci, G.-M.Rignanese, M.Royo, M.Stengel, M.Torrent,
- M.J.van Setten, B.Van Troeye, M.J.Verstraete, J.Wiktor, J.W.Zwanziger, and X.Gonze.
- Comment: a global overview of ABINIT, with focus on selected capabilities .
- Note that a version of this paper, that is not formatted for J. Chem. Phys 
- is available at https://www.abinit.org/sites/default/files/ABINIT20_JPC.pdf .
- The licence allows the authors to put it on the Web.
- DOI and bibtex: see https://docs.abinit.org/theory/bibliography/#romero2020
-
- [4] Recent developments in the ABINIT software package.
- Computer Phys. Comm. 205, 106 (2016).
- X.Gonze, F.Jollet, F.Abreu Araujo, D.Adams, B.Amadon, T.Applencourt,
- C.Audouze, J.-M.Beuken, J.Bieder, A.Bokhanchuk, E.Bousquet, F.Bruneval
- D.Caliste, M.Cote, F.Dahm, F.Da Pieve, M.Delaveau, M.Di Gennaro,
- B.Dorado, C.Espejo, G.Geneste, L.Genovese, A.Gerossier, M.Giantomassi,
- Y.Gillet, D.R.Hamann, L.He, G.Jomard, J.Laflamme Janssen, S.Le Roux,
- A.Levitt, A.Lherbier, F.Liu, I.Lukacevic, A.Martin, C.Martins,
- M.J.T.Oliveira, S.Ponce, Y.Pouillon, T.Rangel, G.-M.Rignanese,
- A.H.Romero, B.Rousseau, O.Rubel, A.A.Shukri, M.Stankovski, M.Torrent,
- M.J.Van Setten, B.Van Troeye, M.J.Verstraete, D.Waroquier, J.Wiktor,
- B.Xu, A.Zhou, J.W.Zwanziger.
- Comment: the fourth generic paper describing the ABINIT project.
- Note that a version of this paper, that is not formatted for Computer Phys. Comm. 
- is available at https://www.abinit.org/sites/default/files/ABINIT16.pdf .
- The licence allows the authors to put it on the Web.
- DOI and bibtex: see https://docs.abinit.org/theory/bibliography/#gonze2016
-
- And optionally:
-
- [5] ABINIT: First-principles approach of materials and nanosystem properties.
- Computer Phys. Comm. 180, 2582-2615 (2009).
- X. Gonze, B. Amadon, P.-M. Anglade, J.-M. Beuken, F. Bottin, P. Boulanger, F. Bruneval,
- D. Caliste, R. Caracas, M. Cote, T. Deutsch, L. Genovese, Ph. Ghosez, M. Giantomassi
- S. Goedecker, D.R. Hamann, P. Hermet, F. Jollet, G. Jomard, S. Leroux, M. Mancini, S. Mazevet,
- M.J.T. Oliveira, G. Onida, Y. Pouillon, T. Rangel, G.-M. Rignanese, D. Sangalli, R. Shaltaf,
- M. Torrent, M.J. Verstraete, G. Zerah, J.W. Zwanziger
- Comment: the third generic paper describing the ABINIT project.
- Note that a version of this paper, that is not formatted for Computer Phys. Comm. 
- is available at https://www.abinit.org/sites/default/files/ABINIT_CPC_v10.pdf .
- The licence allows the authors to put it on the Web.
- DOI and bibtex: see https://docs.abinit.org/theory/bibliography/#gonze2009
-
- Proc.   0 individual time (sec): cpu=         89.5  wall=         90.1

================================================================================

 Calculation completed.
.Delivered   0 WARNINGs and   0 COMMENTs to log file.
+Overall time at end (sec) : cpu=      23010.2  wall=      23073.3
