
.Version 9.9.2 of ABINIT 
.(MPI version, prepared for a x86_64_linux_gnu11.2 computer) 

.Copyright (C) 1998-2022 ABINIT group . 
 ABINIT comes with ABSOLUTELY NO WARRANTY.
 It is free software, and you are welcome to redistribute it
 under certain conditions (GNU General Public License,
 see ~abinit/COPYING or http://www.gnu.org/copyleft/gpl.txt).

 ABINIT is a project of the Universite Catholique de Louvain,
 Corning Inc. and other collaborators, see ~abinit/doc/developers/contributors.txt .
 Please read https://docs.abinit.org/theory/acknowledgments for suggested
 acknowledgments of the ABINIT effort.
 For more information, see https://www.abinit.org .

.Starting date : Thu 16 Feb 2023.
- ( at 22h49 )
  
- input  file    -> run.abi
- output file    -> run.abo
- root for input  files -> ../indata_ac
- root for output files -> outdata_ac


 DATASET    1 : space group Fd -3 m (#227); Bravais cF (face-center cubic)
================================================================================
 Values of the parameters that define the memory need for DATASET  1.
     intxc =       0    ionmov =       0      iscf =       7    lmnmax =       6
     lnmax =       6     mgfft =      30  mpssoang =       3    mqgrid =    3001
     natom =       2  nloc_mem =       1    nspden =       1   nspinor =       1
    nsppol =       1      nsym =      48    n1xccc =    2501    ntypat =       1
    occopt =       1   xclevel =       2
-    mband =         480        mffmem =           1         mkmem =           1
       mpw =         995          nfft =       27000          nkpt =          29
================================================================================
P This job should need less than                      23.995 Mbytes of memory.
  Rough estimation (10% accuracy) of disk space for files :
_ WF disk file :    211.342 Mbytes ; DEN or POT disk file :      0.208 Mbytes.
================================================================================


 DATASET    2 : space group Fd -3 m (#227); Bravais cF (face-center cubic)
================================================================================
 Values of the parameters that define the memory need for DATASET  2.
     intxc =       0    ionmov =       0      iscf =       7    lmnmax =       6
     lnmax =       6     mgfft =      30  mpssoang =       3    mqgrid =    3001
     natom =       2  nloc_mem =       1    nspden =       1   nspinor =       1
    nsppol =       1      nsym =      48    n1xccc =    2501    ntypat =       1
    occopt =       1   xclevel =       2
-    mband =         480        mffmem =           1         mkmem =           1
       mpw =         995          nfft =       27000          nkpt =          29
================================================================================
P This job should need less than                      23.995 Mbytes of memory.
  Rough estimation (10% accuracy) of disk space for files :
_ WF disk file :    211.342 Mbytes ; DEN or POT disk file :      0.208 Mbytes.
================================================================================

--------------------------------------------------------------------------------
------------- Echo of variables that govern the present computation ------------
--------------------------------------------------------------------------------
-
- outvars: echo of selected default values                                      
-   iomode0 =  0 , fftalg0 =312 , wfoptalg0 =  0
-
- outvars: echo of global parameters not present in the input file              
-  max_nthreads =    0
-
 -outvars: echo values of preprocessed input variables --------
            acell      1.0260000000E+01  1.0260000000E+01  1.0260000000E+01 Bohr
              amu      2.80855000E+01
             bdgw           1       5       1       5
           diemac      1.20000000E+01
             ecut      1.80000000E+01 Hartree
          ecuteps      1.20000000E+01 Hartree
         ecutsigx      3.60000000E+01 Hartree
          ecutwfn      1.80000000E+01 Hartree
-          fftalg         312
           getscr1          0
           getscr2         -1
        gwcalctyp           1
           istwfk        1    0    0    0    1    0    0    0    0    0
                         0    0    0    0    0    0    0    0    0    0
                         1    0    0    0    0    0    0    0    0
              ixc          11
           jdtset        1    2
              kpt      0.00000000E+00  0.00000000E+00  0.00000000E+00
                       1.25000000E-01  0.00000000E+00  0.00000000E+00
                       2.50000000E-01  0.00000000E+00  0.00000000E+00
                       3.75000000E-01  0.00000000E+00  0.00000000E+00
                       5.00000000E-01  0.00000000E+00  0.00000000E+00
                       1.25000000E-01  1.25000000E-01  0.00000000E+00
                       2.50000000E-01  1.25000000E-01  0.00000000E+00
                       3.75000000E-01  1.25000000E-01  0.00000000E+00
                       5.00000000E-01  1.25000000E-01  0.00000000E+00
                      -3.75000000E-01  1.25000000E-01  0.00000000E+00
                      -2.50000000E-01  1.25000000E-01  0.00000000E+00
                      -1.25000000E-01  1.25000000E-01  0.00000000E+00
                       2.50000000E-01  2.50000000E-01  0.00000000E+00
                       3.75000000E-01  2.50000000E-01  0.00000000E+00
                       5.00000000E-01  2.50000000E-01  0.00000000E+00
                      -3.75000000E-01  2.50000000E-01  0.00000000E+00
                      -2.50000000E-01  2.50000000E-01  0.00000000E+00
                       3.75000000E-01  3.75000000E-01  0.00000000E+00
                       5.00000000E-01  3.75000000E-01  0.00000000E+00
                      -3.75000000E-01  3.75000000E-01  0.00000000E+00
                       5.00000000E-01  5.00000000E-01  0.00000000E+00
                       3.75000000E-01  2.50000000E-01  1.25000000E-01
                       5.00000000E-01  2.50000000E-01  1.25000000E-01
                      -3.75000000E-01  2.50000000E-01  1.25000000E-01
                       5.00000000E-01  3.75000000E-01  1.25000000E-01
                      -3.75000000E-01  3.75000000E-01  1.25000000E-01
                      -2.50000000E-01  3.75000000E-01  1.25000000E-01
                      -3.75000000E-01  5.00000000E-01  1.25000000E-01
                      -2.50000000E-01  5.00000000E-01  2.50000000E-01
            kptgw      0.00000000E+00  0.00000000E+00  0.00000000E+00
                       5.00000000E-01  5.00000000E-01  0.00000000E+00
         kptrlatt        8    0    0      0    8    0      0    0    8
          kptrlen      5.80393246E+01
P           mkmem           1
            natom           2
            nband         480
           ndtset           2
          nfreqim          25
            ngfft          30      30      30
             nkpt          29
           nkptgw           2
         nomegasi          10
           npweps         531
          npwsigx        2733
           npwwfn         941
            nstep          50
             nsym          48
           ntypat           1
              occ      2.000000  2.000000  2.000000  2.000000  0.000000  0.000000
                       0.000000  0.000000  0.000000  0.000000  0.000000  0.000000
                       0.000000  0.000000  0.000000  0.000000  0.000000  0.000000
                       0.000000  0.000000  0.000000  0.000000  0.000000  0.000000
                       0.000000  0.000000  0.000000  0.000000  0.000000  0.000000
                       0.000000  0.000000  0.000000  0.000000  0.000000  0.000000
                       0.000000  0.000000  0.000000  0.000000  0.000000  0.000000
                       0.000000  0.000000  0.000000  0.000000  0.000000  0.000000
                       0.000000  0.000000  0.000000  0.000000  0.000000  0.000000
                       0.000000  0.000000  0.000000  0.000000  0.000000  0.000000
                       0.000000  0.000000  0.000000  0.000000  0.000000  0.000000
                       0.000000  0.000000  0.000000  0.000000  0.000000  0.000000
                       0.000000  0.000000  0.000000  0.000000  0.000000  0.000000
                       0.000000  0.000000  0.000000  0.000000  0.000000  0.000000
                       0.000000  0.000000  0.000000  0.000000  0.000000  0.000000
                       0.000000  0.000000  0.000000  0.000000  0.000000  0.000000
                       0.000000  0.000000  0.000000  0.000000  0.000000  0.000000
                       0.000000  0.000000  0.000000  0.000000  0.000000  0.000000
                       0.000000  0.000000  0.000000  0.000000  0.000000  0.000000
                       0.000000  0.000000  0.000000  0.000000  0.000000  0.000000
                       0.000000  0.000000  0.000000  0.000000  0.000000  0.000000
                       0.000000  0.000000  0.000000  0.000000  0.000000  0.000000
                       0.000000  0.000000  0.000000  0.000000  0.000000  0.000000
                       0.000000  0.000000  0.000000  0.000000  0.000000  0.000000
                       0.000000  0.000000  0.000000  0.000000  0.000000  0.000000
                       0.000000  0.000000  0.000000  0.000000  0.000000  0.000000
                       0.000000  0.000000  0.000000  0.000000  0.000000  0.000000
                       0.000000  0.000000  0.000000  0.000000  0.000000  0.000000
                       0.000000  0.000000  0.000000  0.000000  0.000000  0.000000
                       0.000000  0.000000  0.000000  0.000000  0.000000  0.000000
                       0.000000  0.000000  0.000000  0.000000  0.000000  0.000000
                       0.000000  0.000000  0.000000  0.000000  0.000000  0.000000
                       0.000000  0.000000  0.000000  0.000000  0.000000  0.000000
                       0.000000  0.000000  0.000000  0.000000  0.000000  0.000000
                       0.000000  0.000000  0.000000  0.000000  0.000000  0.000000
                       0.000000  0.000000  0.000000  0.000000  0.000000  0.000000
                       0.000000  0.000000  0.000000  0.000000  0.000000  0.000000
                       0.000000  0.000000  0.000000  0.000000  0.000000  0.000000
                       0.000000  0.000000  0.000000  0.000000  0.000000  0.000000
                       0.000000  0.000000  0.000000  0.000000  0.000000  0.000000
                       0.000000  0.000000  0.000000  0.000000  0.000000  0.000000
                       0.000000  0.000000  0.000000  0.000000  0.000000  0.000000
                       0.000000  0.000000  0.000000  0.000000  0.000000  0.000000
                       0.000000  0.000000  0.000000  0.000000  0.000000  0.000000
                       0.000000  0.000000  0.000000  0.000000  0.000000  0.000000
                       0.000000  0.000000  0.000000  0.000000  0.000000  0.000000
                       0.000000  0.000000  0.000000  0.000000  0.000000  0.000000
                       0.000000  0.000000  0.000000  0.000000  0.000000  0.000000
                       0.000000  0.000000  0.000000  0.000000  0.000000  0.000000
                       0.000000  0.000000  0.000000  0.000000  0.000000  0.000000
                       0.000000  0.000000  0.000000  0.000000  0.000000  0.000000
                       0.000000  0.000000  0.000000  0.000000  0.000000  0.000000
                       0.000000  0.000000  0.000000  0.000000  0.000000  0.000000
                       0.000000  0.000000  0.000000  0.000000  0.000000  0.000000
                       0.000000  0.000000  0.000000  0.000000  0.000000  0.000000
                       0.000000  0.000000  0.000000  0.000000  0.000000  0.000000
                       0.000000  0.000000  0.000000  0.000000  0.000000  0.000000
                       0.000000  0.000000  0.000000  0.000000  0.000000  0.000000
                       0.000000  0.000000  0.000000  0.000000  0.000000  0.000000
                       0.000000  0.000000  0.000000  0.000000  0.000000  0.000000
                       0.000000  0.000000  0.000000  0.000000  0.000000  0.000000
                       0.000000  0.000000  0.000000  0.000000  0.000000  0.000000
                       0.000000  0.000000  0.000000  0.000000  0.000000  0.000000
                       0.000000  0.000000  0.000000  0.000000  0.000000  0.000000
                       0.000000  0.000000  0.000000  0.000000  0.000000  0.000000
                       0.000000  0.000000  0.000000  0.000000  0.000000  0.000000
                       0.000000  0.000000  0.000000  0.000000  0.000000  0.000000
                       0.000000  0.000000  0.000000  0.000000  0.000000  0.000000
                       0.000000  0.000000  0.000000  0.000000  0.000000  0.000000
                       0.000000  0.000000  0.000000  0.000000  0.000000  0.000000
                       0.000000  0.000000  0.000000  0.000000  0.000000  0.000000
                       0.000000  0.000000  0.000000  0.000000  0.000000  0.000000
                       0.000000  0.000000  0.000000  0.000000  0.000000  0.000000
                       0.000000  0.000000  0.000000  0.000000  0.000000  0.000000
                       0.000000  0.000000  0.000000  0.000000  0.000000  0.000000
                       0.000000  0.000000  0.000000  0.000000  0.000000  0.000000
                       0.000000  0.000000  0.000000  0.000000  0.000000  0.000000
                       0.000000  0.000000  0.000000  0.000000  0.000000  0.000000
                       0.000000  0.000000  0.000000  0.000000  0.000000  0.000000
                       0.000000  0.000000  0.000000  0.000000  0.000000  0.000000
       omegasimax      3.67493254E-01 Hartree
        optdriver1          3
        optdriver2          4
            rprim      0.0000000000E+00  5.0000000000E-01  5.0000000000E-01
                       5.0000000000E-01  0.0000000000E+00  5.0000000000E-01
                       5.0000000000E-01  5.0000000000E-01  0.0000000000E+00
          spgroup         227
           symrel      1  0  0   0  1  0   0  0  1      -1  0  0   0 -1  0   0  0 -1
                       0 -1  1   0 -1  0   1 -1  0       0  1 -1   0  1  0  -1  1  0
                      -1  0  0  -1  0  1  -1  1  0       1  0  0   1  0 -1   1 -1  0
                       0  1 -1   1  0 -1   0  0 -1       0 -1  1  -1  0  1   0  0  1
                      -1  0  0  -1  1  0  -1  0  1       1  0  0   1 -1  0   1  0 -1
                       0 -1  1   1 -1  0   0 -1  0       0  1 -1  -1  1  0   0  1  0
                       1  0  0   0  0  1   0  1  0      -1  0  0   0  0 -1   0 -1  0
                       0  1 -1   0  0 -1   1  0 -1       0 -1  1   0  0  1  -1  0  1
                      -1  0  1  -1  1  0  -1  0  0       1  0 -1   1 -1  0   1  0  0
                       0 -1  0   1 -1  0   0 -1  1       0  1  0  -1  1  0   0  1 -1
                       1  0 -1   0  0 -1   0  1 -1      -1  0  1   0  0  1   0 -1  1
                       0  1  0   0  0  1   1  0  0       0 -1  0   0  0 -1  -1  0  0
                       1  0 -1   0  1 -1   0  0 -1      -1  0  1   0 -1  1   0  0  1
                       0 -1  0   0 -1  1   1 -1  0       0  1  0   0  1 -1  -1  1  0
                      -1  0  1  -1  0  0  -1  1  0       1  0 -1   1  0  0   1 -1  0
                       0  1  0   1  0  0   0  0  1       0 -1  0  -1  0  0   0  0 -1
                       0  0 -1   0  1 -1   1  0 -1       0  0  1   0 -1  1  -1  0  1
                       1 -1  0   0 -1  1   0 -1  0      -1  1  0   0  1 -1   0  1  0
                       0  0  1   1  0  0   0  1  0       0  0 -1  -1  0  0   0 -1  0
                      -1  1  0  -1  0  0  -1  0  1       1 -1  0   1  0  0   1  0 -1
                       0  0  1   0  1  0   1  0  0       0  0 -1   0 -1  0  -1  0  0
                       1 -1  0   0 -1  0   0 -1  1      -1  1  0   0  1  0   0  1 -1
                       0  0 -1   1  0 -1   0  1 -1       0  0  1  -1  0  1   0 -1  1
                      -1  1  0  -1  0  1  -1  0  0       1 -1  0   1  0 -1   1  0  0
           timopt          -1
            tnons      0.0000000  0.0000000  0.0000000     0.2500000  0.2500000  0.2500000
                       0.0000000  0.0000000  0.0000000     0.2500000  0.2500000  0.2500000
                       0.0000000  0.0000000  0.0000000     0.2500000  0.2500000  0.2500000
                       0.0000000  0.0000000  0.0000000     0.2500000  0.2500000  0.2500000
                       0.0000000  0.0000000  0.0000000     0.2500000  0.2500000  0.2500000
                       0.0000000  0.0000000  0.0000000     0.2500000  0.2500000  0.2500000
                       0.0000000  0.0000000  0.0000000     0.2500000  0.2500000  0.2500000
                       0.0000000  0.0000000  0.0000000     0.2500000  0.2500000  0.2500000
                       0.0000000  0.0000000  0.0000000     0.2500000  0.2500000  0.2500000
                       0.0000000  0.0000000  0.0000000     0.2500000  0.2500000  0.2500000
                       0.0000000  0.0000000  0.0000000     0.2500000  0.2500000  0.2500000
                       0.0000000  0.0000000  0.0000000     0.2500000  0.2500000  0.2500000
                       0.0000000  0.0000000  0.0000000     0.2500000  0.2500000  0.2500000
                       0.0000000  0.0000000  0.0000000     0.2500000  0.2500000  0.2500000
                       0.0000000  0.0000000  0.0000000     0.2500000  0.2500000  0.2500000
                       0.0000000  0.0000000  0.0000000     0.2500000  0.2500000  0.2500000
                       0.0000000  0.0000000  0.0000000     0.2500000  0.2500000  0.2500000
                       0.0000000  0.0000000  0.0000000     0.2500000  0.2500000  0.2500000
                       0.0000000  0.0000000  0.0000000     0.2500000  0.2500000  0.2500000
                       0.0000000  0.0000000  0.0000000     0.2500000  0.2500000  0.2500000
                       0.0000000  0.0000000  0.0000000     0.2500000  0.2500000  0.2500000
                       0.0000000  0.0000000  0.0000000     0.2500000  0.2500000  0.2500000
                       0.0000000  0.0000000  0.0000000     0.2500000  0.2500000  0.2500000
                       0.0000000  0.0000000  0.0000000     0.2500000  0.2500000  0.2500000
            typat      1  1
              wtk        0.00195    0.01563    0.01563    0.01563    0.00781    0.01172
                         0.04688    0.04688    0.04688    0.04688    0.04688    0.02344
                         0.01172    0.04688    0.04688    0.04688    0.02344    0.01172
                         0.04688    0.02344    0.00586    0.04688    0.09375    0.04688
                         0.04688    0.09375    0.04688    0.02344    0.01172
           xangst      0.0000000000E+00  0.0000000000E+00  0.0000000000E+00
                       1.3573395400E+00  1.3573395400E+00  1.3573395400E+00
            xcart      0.0000000000E+00  0.0000000000E+00  0.0000000000E+00
                       2.5650000000E+00  2.5650000000E+00  2.5650000000E+00
             xred      0.0000000000E+00  0.0000000000E+00  0.0000000000E+00
                       2.5000000000E-01  2.5000000000E-01  2.5000000000E-01
            znucl       14.00000

================================================================================

 chkinp: Checking input parameters for consistency, jdtset=   1.

 chkinp: Checking input parameters for consistency, jdtset=   2.

================================================================================
== DATASET  1 ==================================================================
-   mpi_nproc: 256, omp_nthreads: -1 (-1 if OMP is not activated)


--- !DatasetInfo
iteration_state: {dtset: 1, }
dimensions: {natom: 2, nkpt: 29, mband: 480, nsppol: 1, nspinor: 1, nspden: 1, mpw: 995, }
cutoff_energies: {ecut:  18.0, pawecutdg:  -1.0, }
electrons: {nelect:   8.00000000E+00, charge:   0.00000000E+00, occopt:   1.00000000E+00, tsmear:   1.00000000E-02, }
meta: {optdriver: 3, gwcalctyp: 1, }
...

 mkfilename: getwfk from: ../outdata_gs_DS2_WFK

 Exchange-correlation functional for the present dataset will be:
  GGA: Perdew-Burke-Ernzerhof functional - ixc=11
 Citation for XC functional:
  J.P.Perdew, K.Burke, M.Ernzerhof, PRL 77, 3865 (1996)

 SCREENING: Calculation of the susceptibility and dielectric matrices 

 Based on a program developped by R.W. Godby, V. Olevano, G. Onida, and L. Reining.
 Incorporated in ABINIT by V. Olevano, G.-M. Rignanese, and M. Torrent.
.Using single precision arithmetic ; gwpc =  4

 Real(R)+Recip(G) space primitive vectors, cartesian coordinates (Bohr,Bohr^-1):
 R(1)=  0.0000000  5.1300000  5.1300000  G(1)= -0.0974659  0.0974659  0.0974659
 R(2)=  5.1300000  0.0000000  5.1300000  G(2)=  0.0974659 -0.0974659  0.0974659
 R(3)=  5.1300000  5.1300000  0.0000000  G(3)=  0.0974659  0.0974659 -0.0974659
 Unit cell volume ucvol=  2.7001139E+02 bohr^3
 Angles (23,13,12)=  6.00000000E+01  6.00000000E+01  6.00000000E+01 degrees

--- Pseudopotential description ------------------------------------------------
- pspini: atom type   1  psp file is ../Si.psp8
- pspatm: opening atomic psp file    ../Si.psp8
- Si    ONCVPSP-3.2.3.1  r_core=   1.60303   1.72197   1.91712
- 14.00000   4.00000    170510                znucl, zion, pspdat
    8   11    2    4       600   0.00000      pspcod,pspxc,lmax,lloc,mmax,r2well
    5.99000000000000    4.00000000000000    0.00000000000000   rchrg,fchrg,qchrg
     nproj     2     2     2
     extension_switch     1
  pspatm : epsatm=    9.34321699
         --- l  ekb(1:nproj) -->
             0    5.168965    0.829883
             1    2.571282    0.578307
             2   -2.427311   -0.488097
 pspatm: atomic psp has been read  and splines computed

   1.49491472E+02                                ecore*ucvol(ha*bohr**3)
--------------------------------------------------------------------------------

 ==== K-mesh for the wavefunctions ====
 Number of points in the irreducible wedge :    29
 Reduced coordinates and weights : 

     1)     0.00000000E+00  0.00000000E+00  0.00000000E+00       0.00195
     2)     1.25000000E-01  0.00000000E+00  0.00000000E+00       0.01563
     3)     2.50000000E-01  0.00000000E+00  0.00000000E+00       0.01563
     4)     3.75000000E-01  0.00000000E+00  0.00000000E+00       0.01563
     5)     5.00000000E-01  0.00000000E+00  0.00000000E+00       0.00781
     6)     1.25000000E-01  1.25000000E-01  0.00000000E+00       0.01172
     7)     2.50000000E-01  1.25000000E-01  0.00000000E+00       0.04688
     8)     3.75000000E-01  1.25000000E-01  0.00000000E+00       0.04688
     9)     5.00000000E-01  1.25000000E-01  0.00000000E+00       0.04688
    10)    -3.75000000E-01  1.25000000E-01  0.00000000E+00       0.04688
    11)    -2.50000000E-01  1.25000000E-01  0.00000000E+00       0.04688
    12)    -1.25000000E-01  1.25000000E-01  0.00000000E+00       0.02344
    13)     2.50000000E-01  2.50000000E-01  0.00000000E+00       0.01172
    14)     3.75000000E-01  2.50000000E-01  0.00000000E+00       0.04688
    15)     5.00000000E-01  2.50000000E-01  0.00000000E+00       0.04688
    16)    -3.75000000E-01  2.50000000E-01  0.00000000E+00       0.04688
    17)    -2.50000000E-01  2.50000000E-01  0.00000000E+00       0.02344
    18)     3.75000000E-01  3.75000000E-01  0.00000000E+00       0.01172
    19)     5.00000000E-01  3.75000000E-01  0.00000000E+00       0.04688
    20)    -3.75000000E-01  3.75000000E-01  0.00000000E+00       0.02344
    21)     5.00000000E-01  5.00000000E-01  0.00000000E+00       0.00586
    22)     3.75000000E-01  2.50000000E-01  1.25000000E-01       0.04688
    23)     5.00000000E-01  2.50000000E-01  1.25000000E-01       0.09375
    24)    -3.75000000E-01  2.50000000E-01  1.25000000E-01       0.04688
    25)     5.00000000E-01  3.75000000E-01  1.25000000E-01       0.04688
    26)    -3.75000000E-01  3.75000000E-01  1.25000000E-01       0.09375
    27)    -2.50000000E-01  3.75000000E-01  1.25000000E-01       0.04688
    28)    -3.75000000E-01  5.00000000E-01  1.25000000E-01       0.02344
    29)    -2.50000000E-01  5.00000000E-01  2.50000000E-01       0.01172

 Together with 48 symmetry operations and time-reversal symmetry 
 yields   512 points in the full Brillouin Zone.


 ==== Q-mesh for the screening function ====
 Number of points in the irreducible wedge :    29
 Reduced coordinates and weights : 

     1)     0.00000000E+00  0.00000000E+00  0.00000000E+00       0.00195
     2)     1.25000000E-01  0.00000000E+00  0.00000000E+00       0.01563
     3)     2.50000000E-01  0.00000000E+00  0.00000000E+00       0.01563
     4)     3.75000000E-01  0.00000000E+00  0.00000000E+00       0.01563
     5)     5.00000000E-01  0.00000000E+00  0.00000000E+00       0.00781
     6)     1.25000000E-01  1.25000000E-01  0.00000000E+00       0.01172
     7)     2.50000000E-01  1.25000000E-01  0.00000000E+00       0.04688
     8)     3.75000000E-01  1.25000000E-01  0.00000000E+00       0.04688
     9)     5.00000000E-01  1.25000000E-01  0.00000000E+00       0.04688
    10)    -3.75000000E-01  1.25000000E-01  0.00000000E+00       0.04688
    11)    -2.50000000E-01  1.25000000E-01  0.00000000E+00       0.04688
    12)    -1.25000000E-01  1.25000000E-01  0.00000000E+00       0.02344
    13)     2.50000000E-01  2.50000000E-01  0.00000000E+00       0.01172
    14)     3.75000000E-01  2.50000000E-01  0.00000000E+00       0.04688
    15)     5.00000000E-01  2.50000000E-01  0.00000000E+00       0.04688
    16)    -3.75000000E-01  2.50000000E-01  0.00000000E+00       0.04688
    17)    -2.50000000E-01  2.50000000E-01  0.00000000E+00       0.02344
    18)     3.75000000E-01  3.75000000E-01  0.00000000E+00       0.01172
    19)     5.00000000E-01  3.75000000E-01  0.00000000E+00       0.04688
    20)    -3.75000000E-01  3.75000000E-01  0.00000000E+00       0.02344
    21)     5.00000000E-01  5.00000000E-01  0.00000000E+00       0.00586
    22)     3.75000000E-01  2.50000000E-01  1.25000000E-01       0.04688
    23)     5.00000000E-01  2.50000000E-01  1.25000000E-01       0.09375
    24)    -3.75000000E-01  2.50000000E-01  1.25000000E-01       0.04688
    25)     5.00000000E-01  3.75000000E-01  1.25000000E-01       0.04688
    26)    -3.75000000E-01  3.75000000E-01  1.25000000E-01       0.09375
    27)    -2.50000000E-01  3.75000000E-01  1.25000000E-01       0.04688
    28)    -3.75000000E-01  5.00000000E-01  1.25000000E-01       0.02344
    29)    -2.50000000E-01  5.00000000E-01  2.50000000E-01       0.01172

 Together with 48 symmetry operations and time-reversal symmetry 
 yields   512 points in the full Brillouin Zone.


 setmesh: FFT mesh size selected  =    32x   32x   32
          total number of points  =        32768


- screening: taking advantage of time-reversal symmetry 
- Maximum band index for partially occupied states nbvw = 4
- Remaining bands to be divided among processors   nbcw = 476
- Number of bands treated by each node ~1

 Number of electrons calculated from density =    8.0000; Expected =    8.0000
 average of density, n =  0.029628
 r_s =    2.0048
 omega_plasma =   16.6039 [eV]


 calculating chi0 at frequencies [eV] :
  1    0.000000E+00    0.000000E+00
  2    0.000000E+00    1.222181E+04
  3    0.000000E+00    2.304919E+03
  4    0.000000E+00    9.271483E+02
  5    0.000000E+00    4.910612E+02
  6    0.000000E+00    2.995395E+02
  7    0.000000E+00    1.988524E+02
  8    0.000000E+00    1.395079E+02
  9    0.000000E+00    1.016496E+02
 10    0.000000E+00    7.605816E+01
 11    0.000000E+00    5.798024E+01
 12    0.000000E+00    4.476373E+01
 13    0.000000E+00    3.483465E+01
 14    0.000000E+00    2.721138E+01
 15    0.000000E+00    2.125640E+01
 16    0.000000E+00    1.654150E+01
 17    0.000000E+00    1.277089E+01
 18    0.000000E+00    9.735437E+00
 19    0.000000E+00    7.284431E+00
 20    0.000000E+00    5.307654E+00
 21    0.000000E+00    3.723663E+00
 22    0.000000E+00    2.471993E+00
 23    0.000000E+00    1.507876E+00
 24    0.000000E+00    7.986419E-01
 25    0.000000E+00    3.212519E-01
 26    0.000000E+00    6.058509E-02


--------------------------------------------------------------------------------
  q-point number  1        q = ( 0.000000, 0.000000, 0.000000) [r.l.u.]
--------------------------------------------------------------------------------
  chi0(G,G') at the    1 th omega   0.0000   0.0000 [eV]
       1       2       3       4       5       6       7       8       9
    1  -0.000   0.000  -0.000  -0.000   0.000   0.000  -0.000  -0.000   0.000
        0.000   0.000   0.000  -0.000  -0.000   0.000   0.000  -0.000  -0.000

    2   0.000 -18.939  -0.000  -0.094   0.000  -0.094  -0.000  -0.094   0.000
       -0.000   0.000  -4.558  -0.000  -0.263   0.000  -0.263  -0.000  -0.263

  chi0(G,G') at the    2 th omega   0.0000********* [eV]
       1       2       3       4       5       6       7       8       9
    1  -0.000   0.000  -0.000  -0.000   0.000   0.000  -0.000  -0.000   0.000
        0.000   0.000   0.000  -0.000  -0.000   0.000   0.000  -0.000  -0.000

    2   0.000  -0.000   0.000  -0.000  -0.000  -0.000  -0.000  -0.000  -0.000
       -0.000   0.000  -0.000  -0.000  -0.000   0.000  -0.000   0.000  -0.000

  chi0(G,G') at the    3 th omega   0.00002304.9186 [eV]
       1       2       3       4       5       6       7       8       9
    1  -0.000   0.000  -0.000  -0.000   0.000   0.000  -0.000  -0.000   0.000
       -0.000   0.000   0.000  -0.000  -0.000   0.000   0.000  -0.000  -0.000

    2   0.000  -0.001   0.000  -0.000  -0.000  -0.000  -0.000  -0.000  -0.000
       -0.000   0.000  -0.000  -0.000  -0.000   0.000  -0.000   0.000  -0.000

  chi0(G,G') at the    4 th omega   0.0000 927.1483 [eV]
       1       2       3       4       5       6       7       8       9
    1  -0.000   0.000  -0.000  -0.000   0.000   0.000  -0.000  -0.000   0.000
       -0.000   0.000   0.000  -0.000  -0.000   0.000   0.000  -0.000  -0.000

    2   0.000  -0.007   0.000  -0.000  -0.000  -0.000  -0.000  -0.000  -0.000
       -0.000   0.000  -0.000  -0.000  -0.000   0.000  -0.000   0.000  -0.000

  chi0(G,G') at the    5 th omega   0.0000 491.0612 [eV]
       1       2       3       4       5       6       7       8       9
    1  -0.000   0.000  -0.000  -0.000   0.000   0.000  -0.000  -0.000   0.000
       -0.000   0.000   0.000  -0.000  -0.000   0.000   0.000  -0.000  -0.000

    2   0.000  -0.026   0.000  -0.001  -0.000  -0.001  -0.000  -0.001  -0.000
       -0.000   0.000  -0.001  -0.000  -0.000   0.000  -0.000   0.000  -0.000

  chi0(G,G') at the    6 th omega   0.0000 299.5395 [eV]
       1       2       3       4       5       6       7       8       9
    1  -0.000   0.000  -0.000  -0.000   0.000   0.000  -0.000  -0.000   0.000
        0.000   0.000   0.000  -0.000  -0.000   0.000   0.000  -0.000  -0.000

    2   0.000  -0.070   0.000  -0.002  -0.000  -0.002  -0.000  -0.002  -0.000
       -0.000   0.000  -0.003  -0.000  -0.000   0.000  -0.000   0.000  -0.000

  chi0(G,G') at the    7 th omega   0.0000 198.8524 [eV]
       1       2       3       4       5       6       7       8       9
    1  -0.000   0.000  -0.000  -0.000   0.000   0.000  -0.000  -0.000   0.000
        0.000   0.000   0.000  -0.000  -0.000   0.000   0.000  -0.000  -0.000

    2   0.000  -0.156   0.000  -0.004  -0.000  -0.004  -0.000  -0.004  -0.000
       -0.000   0.000  -0.007  -0.000  -0.000   0.000  -0.000   0.000  -0.000

  chi0(G,G') at the    8 th omega   0.0000 139.5079 [eV]
       1       2       3       4       5       6       7       8       9
    1  -0.000   0.000  -0.000  -0.000   0.000   0.000  -0.000  -0.000   0.000
       -0.000   0.000   0.000  -0.000  -0.000   0.000   0.000  -0.000  -0.000

    2   0.000  -0.310   0.000  -0.008  -0.000  -0.008  -0.000  -0.008  -0.000
       -0.000   0.000  -0.015  -0.000  -0.001   0.000  -0.001   0.000  -0.001

  chi0(G,G') at the    9 th omega   0.0000 101.6496 [eV]
       1       2       3       4       5       6       7       8       9
    1  -0.000   0.000  -0.000  -0.000   0.000   0.000  -0.000  -0.000   0.000
       -0.000   0.000   0.000  -0.000  -0.000   0.000   0.000  -0.000  -0.000

    2   0.000  -0.561   0.000  -0.014  -0.000  -0.014  -0.000  -0.014  -0.000
       -0.000   0.000  -0.028  -0.000  -0.002   0.000  -0.002   0.000  -0.002

  chi0(G,G') at the   10 th omega   0.0000  76.0582 [eV]
       1       2       3       4       5       6       7       8       9
    1  -0.000   0.000  -0.000  -0.000   0.000   0.000  -0.000  -0.000   0.000
        0.000   0.000   0.000  -0.000  -0.000   0.000   0.000  -0.000  -0.000

    2   0.000  -0.949   0.000  -0.023  -0.000  -0.023  -0.000  -0.023  -0.000
       -0.000   0.000  -0.052  -0.000  -0.004   0.000  -0.004   0.000  -0.004

  chi0(G,G') at the   11 th omega   0.0000  57.9802 [eV]
       1       2       3       4       5       6       7       8       9
    1  -0.000   0.000  -0.000  -0.000   0.000   0.000  -0.000  -0.000   0.000
       -0.000   0.000   0.000  -0.000  -0.000   0.000   0.000  -0.000  -0.000

    2   0.000  -1.513   0.000  -0.035  -0.000  -0.035  -0.000  -0.035  -0.000
       -0.000   0.000  -0.094  -0.000  -0.010   0.000  -0.010   0.000  -0.010

  chi0(G,G') at the   12 th omega   0.0000  44.7637 [eV]
       1       2       3       4       5       6       7       8       9
    1  -0.000   0.000  -0.000  -0.000   0.000   0.000  -0.000  -0.000   0.000
       -0.000   0.000   0.000  -0.000  -0.000   0.000   0.000  -0.000  -0.000

    2   0.000  -2.294   0.000  -0.047  -0.000  -0.047  -0.000  -0.047  -0.000
       -0.000   0.000  -0.162  -0.000  -0.021   0.000  -0.021   0.000  -0.021

  chi0(G,G') at the   13 th omega   0.0000  34.8347 [eV]
       1       2       3       4       5       6       7       8       9
    1  -0.000   0.000  -0.000  -0.000   0.000   0.000  -0.000  -0.000   0.000
        0.000   0.000   0.000  -0.000  -0.000   0.000   0.000  -0.000  -0.000

    2   0.000  -3.322   0.000  -0.057  -0.000  -0.057  -0.000  -0.057  -0.000
       -0.000   0.000  -0.272  -0.000  -0.038   0.000  -0.038   0.000  -0.038

  chi0(G,G') at the   14 th omega   0.0000  27.2114 [eV]
       1       2       3       4       5       6       7       8       9
    1  -0.000   0.000  -0.000  -0.000   0.000   0.000  -0.000  -0.000   0.000
        0.000   0.000   0.000  -0.000  -0.000   0.000   0.000  -0.000  -0.000

    2   0.000  -4.608   0.000  -0.060   0.000  -0.060  -0.000  -0.060  -0.000
       -0.000   0.000  -0.438  -0.000  -0.063   0.000  -0.063   0.000  -0.063

  chi0(G,G') at the   15 th omega   0.0000  21.2564 [eV]
       1       2       3       4       5       6       7       8       9
    1  -0.000   0.000  -0.000  -0.000   0.000   0.000  -0.000  -0.000   0.000
       -0.000   0.000   0.000  -0.000  -0.000   0.000   0.000  -0.000  -0.000

    2   0.000  -6.141  -0.000  -0.053   0.000  -0.053  -0.000  -0.053  -0.000
       -0.000   0.000  -0.680  -0.000  -0.093   0.000  -0.093   0.000  -0.093

 No. of calculated frequencies >  15, stop printing
 For q-point:  0.000010 0.000020 0.000030
  dielectric constant =  13.2041
  dielectric constant without local fields =  14.6448

  Average fulfillment of the sum rule on Im[epsilon] for q-point    1 :     95.71  [%]
  Heads and wings of the symmetrical epsilon^-1(G,G') 

   Upper and lower wings at the    1 th omega   0.0000   0.0000 [eV]
       1       2       3       4       5       6       7       8       9
      0.076   0.006  -0.006  -0.017   0.017   0.017  -0.017  -0.006   0.006
     -0.000   0.006   0.006  -0.017  -0.017   0.017   0.017  -0.006  -0.006
       1       2       3       4       5       6       7       8       9
      0.076   0.006  -0.006  -0.017   0.017   0.017  -0.017  -0.006   0.006
     -0.000  -0.006  -0.006   0.017   0.017  -0.017  -0.017   0.006   0.006


   Upper and lower wings at the    2 th omega   0.0000********* [eV]
       1       2       3       4       5       6       7       8       9
      1.000   0.000  -0.000  -0.000   0.000   0.000  -0.000  -0.000   0.000
      0.000   0.000   0.000  -0.000  -0.000   0.000   0.000  -0.000  -0.000
       1       2       3       4       5       6       7       8       9
      1.000   0.000  -0.000  -0.000   0.000   0.000  -0.000  -0.000   0.000
      0.000  -0.000  -0.000   0.000   0.000  -0.000  -0.000   0.000   0.000


   Upper and lower wings at the    3 th omega   0.00002304.9186 [eV]
       1       2       3       4       5       6       7       8       9
      1.000   0.000  -0.000  -0.000   0.000   0.000  -0.000  -0.000   0.000
      0.000   0.000   0.000  -0.000  -0.000   0.000   0.000  -0.000  -0.000
       1       2       3       4       5       6       7       8       9
      1.000   0.000  -0.000  -0.000   0.000   0.000  -0.000  -0.000   0.000
      0.000  -0.000  -0.000   0.000   0.000  -0.000  -0.000   0.000   0.000


   Upper and lower wings at the    4 th omega   0.0000 927.1483 [eV]
       1       2       3       4       5       6       7       8       9
      1.000   0.000  -0.000  -0.000   0.000   0.000  -0.000  -0.000   0.000
      0.000   0.000   0.000  -0.000  -0.000   0.000   0.000  -0.000  -0.000
       1       2       3       4       5       6       7       8       9
      1.000   0.000  -0.000  -0.000   0.000   0.000  -0.000  -0.000   0.000
      0.000  -0.000  -0.000   0.000   0.000  -0.000  -0.000   0.000   0.000


   Upper and lower wings at the    5 th omega   0.0000 491.0612 [eV]
       1       2       3       4       5       6       7       8       9
      0.999   0.000  -0.000  -0.000   0.000   0.000  -0.000  -0.000   0.000
     -0.000   0.000   0.000  -0.000  -0.000   0.000   0.000  -0.000  -0.000
       1       2       3       4       5       6       7       8       9
      0.999   0.000  -0.000  -0.000   0.000   0.000  -0.000  -0.000   0.000
     -0.000  -0.000  -0.000   0.000   0.000  -0.000  -0.000   0.000   0.000


   Upper and lower wings at the    6 th omega   0.0000 299.5395 [eV]
       1       2       3       4       5       6       7       8       9
      0.997   0.000  -0.000  -0.000   0.000   0.000  -0.000  -0.000   0.000
      0.000   0.000   0.000  -0.000  -0.000   0.000   0.000  -0.000  -0.000
       1       2       3       4       5       6       7       8       9
      0.997   0.000  -0.000  -0.000   0.000   0.000  -0.000  -0.000   0.000
      0.000  -0.000  -0.000   0.000   0.000  -0.000  -0.000   0.000   0.000


   Upper and lower wings at the    7 th omega   0.0000 198.8524 [eV]
       1       2       3       4       5       6       7       8       9
      0.993   0.000  -0.000  -0.001   0.001   0.001  -0.001  -0.000   0.000
      0.000   0.000   0.000  -0.001  -0.001   0.001   0.001  -0.000  -0.000
       1       2       3       4       5       6       7       8       9
      0.993   0.000  -0.000  -0.001   0.001   0.001  -0.001  -0.000   0.000
      0.000  -0.000  -0.000   0.001   0.001  -0.001  -0.001   0.000   0.000


   Upper and lower wings at the    8 th omega   0.0000 139.5079 [eV]
       1       2       3       4       5       6       7       8       9
      0.987   0.000  -0.000  -0.001   0.001   0.001  -0.001  -0.000   0.000
      0.000   0.000   0.000  -0.001  -0.001   0.001   0.001  -0.000  -0.000
       1       2       3       4       5       6       7       8       9
      0.987   0.000  -0.000  -0.001   0.001   0.001  -0.001  -0.000   0.000
      0.000  -0.000  -0.000   0.001   0.001  -0.001  -0.001   0.000   0.000


   Upper and lower wings at the    9 th omega   0.0000 101.6496 [eV]
       1       2       3       4       5       6       7       8       9
      0.975   0.001  -0.001  -0.002   0.002   0.002  -0.002  -0.001   0.001
     -0.000   0.001   0.001  -0.002  -0.002   0.002   0.002  -0.001  -0.001
       1       2       3       4       5       6       7       8       9
      0.975   0.001  -0.001  -0.002   0.002   0.002  -0.002  -0.001   0.001
     -0.000  -0.001  -0.001   0.002   0.002  -0.002  -0.002   0.001   0.001


   Upper and lower wings at the   10 th omega   0.0000  76.0582 [eV]
       1       2       3       4       5       6       7       8       9
      0.957   0.001  -0.001  -0.004   0.004   0.004  -0.004  -0.001   0.001
      0.000   0.001   0.001  -0.004  -0.004   0.004   0.004  -0.001  -0.001
       1       2       3       4       5       6       7       8       9
      0.957   0.001  -0.001  -0.004   0.004   0.004  -0.004  -0.001   0.001
      0.000  -0.001  -0.001   0.004   0.004  -0.004  -0.004   0.001   0.001


   Upper and lower wings at the   11 th omega   0.0000  57.9802 [eV]
       1       2       3       4       5       6       7       8       9
      0.930   0.002  -0.002  -0.006   0.006   0.006  -0.006  -0.002   0.002
      0.000   0.002   0.002  -0.006  -0.006   0.006   0.006  -0.002  -0.002
       1       2       3       4       5       6       7       8       9
      0.930   0.002  -0.002  -0.006   0.006   0.006  -0.006  -0.002   0.002
      0.000  -0.002  -0.002   0.006   0.006  -0.006  -0.006   0.002   0.002


   Upper and lower wings at the   12 th omega   0.0000  44.7637 [eV]
       1       2       3       4       5       6       7       8       9
      0.890   0.003  -0.003  -0.009   0.009   0.009  -0.009  -0.003   0.003
     -0.000   0.003   0.003  -0.009  -0.009   0.009   0.009  -0.003  -0.003
       1       2       3       4       5       6       7       8       9
      0.890   0.003  -0.003  -0.009   0.009   0.009  -0.009  -0.003   0.003
     -0.000  -0.003  -0.003   0.009   0.009  -0.009  -0.009   0.003   0.003


   Upper and lower wings at the   13 th omega   0.0000  34.8347 [eV]
       1       2       3       4       5       6       7       8       9
      0.834   0.004  -0.004  -0.013   0.013   0.013  -0.013  -0.004   0.004
      0.000   0.004   0.004  -0.013  -0.013   0.013   0.013  -0.004  -0.004
       1       2       3       4       5       6       7       8       9
      0.834   0.004  -0.004  -0.013   0.013   0.013  -0.013  -0.004   0.004
      0.000  -0.004  -0.004   0.013   0.013  -0.013  -0.013   0.004   0.004


   Upper and lower wings at the   14 th omega   0.0000  27.2114 [eV]
       1       2       3       4       5       6       7       8       9
      0.759   0.006  -0.006  -0.017   0.017   0.017  -0.017  -0.006   0.006
      0.000   0.006   0.006  -0.017  -0.017   0.017   0.017  -0.006  -0.006
       1       2       3       4       5       6       7       8       9
      0.759   0.006  -0.006  -0.017   0.017   0.017  -0.017  -0.006   0.006
      0.000  -0.006  -0.006   0.017   0.017  -0.017  -0.017   0.006   0.006


   Upper and lower wings at the   15 th omega   0.0000  21.2564 [eV]
       1       2       3       4       5       6       7       8       9
      0.666   0.007  -0.007  -0.022   0.022   0.022  -0.022  -0.007   0.007
     -0.000   0.007   0.007  -0.022  -0.022   0.022   0.022  -0.007  -0.007
       1       2       3       4       5       6       7       8       9
      0.666   0.007  -0.007  -0.022   0.022   0.022  -0.022  -0.007   0.007
     -0.000  -0.007  -0.007   0.022   0.022  -0.022  -0.022   0.007   0.007


   Upper and lower wings at the   16 th omega   0.0000  16.5415 [eV]
       1       2       3       4       5       6       7       8       9
      0.560   0.008  -0.008  -0.025   0.025   0.025  -0.025  -0.008   0.008
      0.000   0.008   0.008  -0.025  -0.025   0.025   0.025  -0.008  -0.008
       1       2       3       4       5       6       7       8       9
      0.560   0.008  -0.008  -0.025   0.025   0.025  -0.025  -0.008   0.008
      0.000  -0.008  -0.008   0.025   0.025  -0.025  -0.025   0.008   0.008


   Upper and lower wings at the   17 th omega   0.0000  12.7709 [eV]
       1       2       3       4       5       6       7       8       9
      0.450   0.009  -0.009  -0.027   0.027   0.027  -0.027  -0.009   0.009
     -0.000   0.009   0.009  -0.027  -0.027   0.027   0.027  -0.009  -0.009
       1       2       3       4       5       6       7       8       9
      0.450   0.009  -0.009  -0.027   0.027   0.027  -0.027  -0.009   0.009
     -0.000  -0.009  -0.009   0.027   0.027  -0.027  -0.027   0.009   0.009


   Upper and lower wings at the   18 th omega   0.0000   9.7354 [eV]
       1       2       3       4       5       6       7       8       9
      0.345   0.009  -0.009  -0.028   0.028   0.028  -0.028  -0.009   0.009
      0.000   0.009   0.009  -0.028  -0.028   0.028   0.028  -0.009  -0.009
       1       2       3       4       5       6       7       8       9
      0.345   0.009  -0.009  -0.028   0.028   0.028  -0.028  -0.009   0.009
      0.000  -0.009  -0.009   0.028   0.028  -0.028  -0.028   0.009   0.009


   Upper and lower wings at the   19 th omega   0.0000   7.2844 [eV]
       1       2       3       4       5       6       7       8       9
      0.255   0.009  -0.009  -0.027   0.027   0.027  -0.027  -0.009   0.009
      0.000   0.009   0.009  -0.027  -0.027   0.027   0.027  -0.009  -0.009
       1       2       3       4       5       6       7       8       9
      0.255   0.009  -0.009  -0.027   0.027   0.027  -0.027  -0.009   0.009
      0.000  -0.009  -0.009   0.027   0.027  -0.027  -0.027   0.009   0.009


   Upper and lower wings at the   20 th omega   0.0000   5.3077 [eV]
       1       2       3       4       5       6       7       8       9
      0.185   0.008  -0.008  -0.025   0.025   0.025  -0.025  -0.008   0.008
     -0.000   0.008   0.008  -0.025  -0.025   0.025   0.025  -0.008  -0.008
       1       2       3       4       5       6       7       8       9
      0.185   0.008  -0.008  -0.025   0.025   0.025  -0.025  -0.008   0.008
     -0.000  -0.008  -0.008   0.025   0.025  -0.025  -0.025   0.008   0.008


   Upper and lower wings at the   21 th omega   0.0000   3.7237 [eV]
       1       2       3       4       5       6       7       8       9
      0.136   0.007  -0.007  -0.022   0.022   0.022  -0.022  -0.007   0.007
      0.000   0.007   0.007  -0.022  -0.022   0.022   0.022  -0.007  -0.007
       1       2       3       4       5       6       7       8       9
      0.136   0.007  -0.007  -0.022   0.022   0.022  -0.022  -0.007   0.007
      0.000  -0.007  -0.007   0.022   0.022  -0.022  -0.022   0.007   0.007


   Upper and lower wings at the   22 th omega   0.0000   2.4720 [eV]
       1       2       3       4       5       6       7       8       9
      0.105   0.007  -0.007  -0.020   0.020   0.020  -0.020  -0.007   0.007
     -0.000   0.007   0.007  -0.020  -0.020   0.020   0.020  -0.007  -0.007
       1       2       3       4       5       6       7       8       9
      0.105   0.007  -0.007  -0.020   0.020   0.020  -0.020  -0.007   0.007
     -0.000  -0.007  -0.007   0.020   0.020  -0.020  -0.020   0.007   0.007


   Upper and lower wings at the   23 th omega   0.0000   1.5079 [eV]
       1       2       3       4       5       6       7       8       9
      0.087   0.006  -0.006  -0.018   0.018   0.018  -0.018  -0.006   0.006
     -0.000   0.006   0.006  -0.018  -0.018   0.018   0.018  -0.006  -0.006
       1       2       3       4       5       6       7       8       9
      0.087   0.006  -0.006  -0.018   0.018   0.018  -0.018  -0.006   0.006
     -0.000  -0.006  -0.006   0.018   0.018  -0.018  -0.018   0.006   0.006


   Upper and lower wings at the   24 th omega   0.0000   0.7986 [eV]
       1       2       3       4       5       6       7       8       9
      0.079   0.006  -0.006  -0.018   0.018   0.018  -0.018  -0.006   0.006
     -0.000   0.006   0.006  -0.018  -0.018   0.018   0.018  -0.006  -0.006
       1       2       3       4       5       6       7       8       9
      0.079   0.006  -0.006  -0.018   0.018   0.018  -0.018  -0.006   0.006
     -0.000  -0.006  -0.006   0.018   0.018  -0.018  -0.018   0.006   0.006


   Upper and lower wings at the   25 th omega   0.0000   0.3213 [eV]
       1       2       3       4       5       6       7       8       9
      0.076   0.006  -0.006  -0.017   0.017   0.017  -0.017  -0.006   0.006
      0.000   0.006   0.006  -0.017  -0.017   0.017   0.017  -0.006  -0.006
       1       2       3       4       5       6       7       8       9
      0.076   0.006  -0.006  -0.017   0.017   0.017  -0.017  -0.006   0.006
      0.000  -0.006  -0.006   0.017   0.017  -0.017  -0.017   0.006   0.006


   Upper and lower wings at the   26 th omega   0.0000   0.0606 [eV]
       1       2       3       4       5       6       7       8       9
      0.076   0.006  -0.006  -0.017   0.017   0.017  -0.017  -0.006   0.006
     -0.000   0.006   0.006  -0.017  -0.017   0.017   0.017  -0.006  -0.006
       1       2       3       4       5       6       7       8       9
      0.076   0.006  -0.006  -0.017   0.017   0.017  -0.017  -0.006   0.006
     -0.000  -0.006  -0.006   0.017   0.017  -0.017  -0.017   0.006   0.006




--------------------------------------------------------------------------------
  q-point number  2        q = ( 0.125000, 0.000000, 0.000000) [r.l.u.]
--------------------------------------------------------------------------------
  chi0(G,G') at the    1 th omega   0.0000   0.0000 [eV]
       1       2       3       4       5       6       7       8       9
    1  -3.611  -1.248   1.559  -0.161  -1.016  -0.161  -1.016  -0.161  -1.016
        0.000  -1.248  -1.559  -0.161   1.016  -0.161   1.016  -0.161   1.016

    2  -1.248 -18.821   0.000  -0.414  -0.000  -0.414  -0.000  -0.414   0.000
        1.248   0.000  -4.350   0.000  -0.048   0.000  -0.048   0.000  -0.048

  chi0(G,G') at the    2 th omega   0.0000********* [eV]
       1       2       3       4       5       6       7       8       9
    1  -0.000  -0.000   0.000   0.000  -0.000   0.000  -0.000   0.000  -0.000
        0.000  -0.000  -0.000   0.000   0.000   0.000   0.000   0.000   0.000

    2  -0.000  -0.000  -0.000  -0.000   0.000  -0.000  -0.000  -0.000  -0.000
        0.000   0.000  -0.000   0.000  -0.000   0.000  -0.000   0.000  -0.000

  chi0(G,G') at the    3 th omega   0.00002304.9186 [eV]
       1       2       3       4       5       6       7       8       9
    1  -0.000  -0.000   0.000   0.000  -0.000   0.000  -0.000   0.000  -0.000
        0.000  -0.000  -0.000   0.000   0.000   0.000   0.000   0.000   0.000

    2  -0.000  -0.002  -0.000  -0.000   0.000  -0.000  -0.000  -0.000  -0.000
        0.000   0.000  -0.000   0.000  -0.000   0.000  -0.000   0.000  -0.000

  chi0(G,G') at the    4 th omega   0.0000 927.1483 [eV]
       1       2       3       4       5       6       7       8       9
    1  -0.000  -0.000   0.000   0.000  -0.000   0.000  -0.000   0.000  -0.000
        0.000  -0.000  -0.000   0.000   0.000   0.000   0.000   0.000   0.000

    2  -0.000  -0.009  -0.000  -0.000   0.000  -0.000  -0.000  -0.000  -0.000
        0.000   0.000  -0.000   0.000  -0.000   0.000  -0.000   0.000  -0.000

  chi0(G,G') at the    5 th omega   0.0000 491.0612 [eV]
       1       2       3       4       5       6       7       8       9
    1  -0.000  -0.001   0.000   0.000  -0.000   0.000  -0.000   0.000  -0.000
        0.000  -0.001  -0.000   0.000   0.000   0.000   0.000   0.000   0.000

    2  -0.001  -0.033  -0.000  -0.001   0.000  -0.001  -0.000  -0.001  -0.000
        0.001   0.000  -0.001   0.000  -0.000   0.000  -0.000   0.000  -0.000

  chi0(G,G') at the    6 th omega   0.0000 299.5395 [eV]
       1       2       3       4       5       6       7       8       9
    1  -0.001  -0.001   0.001   0.000  -0.001   0.000  -0.001   0.000  -0.001
        0.000  -0.001  -0.001   0.000   0.001   0.000   0.001   0.000   0.001

    2  -0.001  -0.088  -0.000  -0.001   0.000  -0.001  -0.000  -0.001  -0.000
        0.001   0.000  -0.003   0.000  -0.000   0.000  -0.000   0.000  -0.000

  chi0(G,G') at the    7 th omega   0.0000 198.8524 [eV]
       1       2       3       4       5       6       7       8       9
    1  -0.002  -0.003   0.002   0.001  -0.001   0.001  -0.001   0.001  -0.001
        0.000  -0.003  -0.002   0.001   0.001   0.001   0.001   0.001   0.001

    2  -0.003  -0.197  -0.000  -0.003   0.000  -0.003  -0.000  -0.003  -0.000
        0.003   0.000  -0.007   0.000  -0.000   0.000  -0.000   0.000  -0.000

  chi0(G,G') at the    8 th omega   0.0000 139.5079 [eV]
       1       2       3       4       5       6       7       8       9
    1  -0.005  -0.006   0.005   0.001  -0.003   0.001  -0.003   0.001  -0.003
        0.000  -0.006  -0.005   0.001   0.003   0.001   0.003   0.001   0.003

    2  -0.006  -0.387  -0.000  -0.006   0.000  -0.006  -0.000  -0.006  -0.000
        0.006   0.000  -0.014   0.000  -0.001   0.000  -0.001   0.000  -0.001

  chi0(G,G') at the    9 th omega   0.0000 101.6496 [eV]
       1       2       3       4       5       6       7       8       9
    1  -0.009  -0.011   0.009   0.002  -0.005   0.002  -0.005   0.002  -0.005
        0.000  -0.011  -0.009   0.002   0.005   0.002   0.005   0.002   0.005

    2  -0.011  -0.695  -0.000  -0.011   0.000  -0.011   0.000  -0.011  -0.000
        0.011   0.000  -0.028   0.000  -0.002   0.000  -0.002   0.000  -0.002

  chi0(G,G') at the   10 th omega   0.0000  76.0582 [eV]
       1       2       3       4       5       6       7       8       9
    1  -0.016  -0.019   0.015   0.003  -0.008   0.003  -0.008   0.003  -0.008
        0.000  -0.019  -0.015   0.003   0.008   0.003   0.008   0.003   0.008

    2  -0.019  -1.160  -0.000  -0.018   0.000  -0.018  -0.000  -0.018  -0.000
        0.019   0.000  -0.052   0.000  -0.005   0.000  -0.005   0.000  -0.005

  chi0(G,G') at the   11 th omega   0.0000  57.9802 [eV]
       1       2       3       4       5       6       7       8       9
    1  -0.028  -0.031   0.025   0.005  -0.013   0.005  -0.013   0.005  -0.013
        0.000  -0.031  -0.025   0.005   0.013   0.005   0.013   0.005   0.013

    2  -0.031  -1.820  -0.000  -0.027   0.000  -0.027  -0.000  -0.027  -0.000
        0.031   0.000  -0.092   0.000  -0.012   0.000  -0.012   0.000  -0.012

  chi0(G,G') at the   12 th omega   0.0000  44.7637 [eV]
       1       2       3       4       5       6       7       8       9
    1  -0.046  -0.049   0.040   0.008  -0.021   0.008  -0.021   0.008  -0.021
        0.000  -0.049  -0.040   0.008   0.021   0.008   0.021   0.008   0.021

    2  -0.049  -2.704  -0.000  -0.035   0.000  -0.035   0.000  -0.035  -0.000
        0.049   0.000  -0.159   0.000  -0.023   0.000  -0.023   0.000  -0.023

  chi0(G,G') at the   13 th omega   0.0000  34.8347 [eV]
       1       2       3       4       5       6       7       8       9
    1  -0.075  -0.076   0.063   0.012  -0.034   0.012  -0.034   0.012  -0.034
        0.000  -0.076  -0.063   0.012   0.034   0.012   0.034   0.012   0.034

    2  -0.076  -3.827  -0.000  -0.040   0.000  -0.040   0.000  -0.040  -0.000
        0.076   0.000  -0.266   0.000  -0.040   0.000  -0.040   0.000  -0.040

  chi0(G,G') at the   14 th omega   0.0000  27.2114 [eV]
       1       2       3       4       5       6       7       8       9
    1  -0.119  -0.114   0.097   0.018  -0.052   0.018  -0.052   0.018  -0.052
        0.000  -0.114  -0.097   0.018   0.052   0.018   0.052   0.018   0.052

    2  -0.114  -5.184  -0.000  -0.040   0.000  -0.040  -0.000  -0.040  -0.000
        0.114   0.000  -0.430   0.000  -0.062   0.000  -0.062   0.000  -0.062

  chi0(G,G') at the   15 th omega   0.0000  21.2564 [eV]
       1       2       3       4       5       6       7       8       9
    1  -0.188  -0.168   0.147   0.024  -0.080   0.024  -0.080   0.024  -0.080
        0.000  -0.168  -0.147   0.024   0.080   0.024   0.080   0.024   0.080

    2  -0.168  -6.748  -0.000  -0.033   0.000  -0.033   0.000  -0.033  -0.000
        0.168   0.000  -0.667   0.000  -0.085   0.000  -0.085   0.000  -0.085

 No. of calculated frequencies >  15, stop printing
  Average fulfillment of the sum rule on Im[epsilon] for q-point    2 :     95.38  [%]


--------------------------------------------------------------------------------
  q-point number  3        q = ( 0.250000, 0.000000, 0.000000) [r.l.u.]
--------------------------------------------------------------------------------
  chi0(G,G') at the    1 th omega   0.0000   0.0000 [eV]
       1       2       3       4       5       6       7       8       9
    1  -8.875  -1.688   2.411  -0.954  -1.916  -0.954  -1.916  -0.954  -1.916
        0.000  -1.688  -2.411  -0.954   1.916  -0.954   1.916  -0.954   1.916

    2  -1.688 -18.504  -0.000  -0.323  -0.000  -0.323   0.000  -0.323   0.000
        1.688   0.000  -4.025  -0.000   0.012  -0.000   0.012  -0.000   0.012

  chi0(G,G') at the    2 th omega   0.0000********* [eV]
       1       2       3       4       5       6       7       8       9
    1  -0.000  -0.000   0.000   0.000  -0.000   0.000  -0.000   0.000  -0.000
        0.000  -0.000  -0.000   0.000   0.000   0.000   0.000   0.000   0.000

    2  -0.000  -0.000  -0.000  -0.000  -0.000  -0.000   0.000  -0.000   0.000
        0.000   0.000  -0.000  -0.000  -0.000  -0.000  -0.000  -0.000  -0.000

  chi0(G,G') at the    3 th omega   0.00002304.9186 [eV]
       1       2       3       4       5       6       7       8       9
    1  -0.000  -0.000   0.000   0.000  -0.000   0.000  -0.000   0.000  -0.000
        0.000  -0.000  -0.000   0.000   0.000   0.000   0.000   0.000   0.000

    2  -0.000  -0.002  -0.000  -0.000   0.000  -0.000   0.000  -0.000   0.000
        0.000   0.000  -0.000  -0.000  -0.000  -0.000  -0.000  -0.000  -0.000

  chi0(G,G') at the    4 th omega   0.0000 927.1483 [eV]
       1       2       3       4       5       6       7       8       9
    1  -0.000  -0.000   0.000   0.000  -0.000   0.000  -0.000   0.000  -0.000
        0.000  -0.000  -0.000   0.000   0.000   0.000   0.000   0.000   0.000

    2  -0.000  -0.012  -0.000  -0.000   0.000  -0.000   0.000  -0.000   0.000
        0.000   0.000  -0.000  -0.000  -0.000  -0.000  -0.000  -0.000  -0.000

  chi0(G,G') at the    5 th omega   0.0000 491.0612 [eV]
       1       2       3       4       5       6       7       8       9
    1  -0.002  -0.001   0.001   0.000  -0.001   0.000  -0.001   0.000  -0.001
        0.000  -0.001  -0.001   0.000   0.001   0.000   0.001   0.000   0.001

    2  -0.001  -0.041  -0.000  -0.000   0.000  -0.000   0.000  -0.000   0.000
        0.001   0.000  -0.001  -0.000  -0.000  -0.000  -0.000  -0.000  -0.000

  chi0(G,G') at the    6 th omega   0.0000 299.5395 [eV]
       1       2       3       4       5       6       7       8       9
    1  -0.004  -0.003   0.002   0.000  -0.001   0.000  -0.001   0.000  -0.001
        0.000  -0.003  -0.002   0.000   0.001   0.000   0.001   0.000   0.001

    2  -0.003  -0.109  -0.000  -0.001   0.000  -0.001   0.000  -0.001   0.000
        0.003   0.000  -0.003  -0.000  -0.000  -0.000  -0.000  -0.000  -0.000

  chi0(G,G') at the    7 th omega   0.0000 198.8524 [eV]
       1       2       3       4       5       6       7       8       9
    1  -0.010  -0.007   0.004   0.000  -0.003   0.000  -0.003   0.000  -0.003
        0.000  -0.007  -0.004   0.000   0.003   0.000   0.003   0.000   0.003

    2  -0.007  -0.241  -0.000  -0.002   0.000  -0.002   0.000  -0.002   0.000
        0.007   0.000  -0.007  -0.000  -0.000  -0.000  -0.000  -0.000  -0.000

  chi0(G,G') at the    8 th omega   0.0000 139.5079 [eV]
       1       2       3       4       5       6       7       8       9
    1  -0.020  -0.013   0.008   0.001  -0.006   0.001  -0.006   0.001  -0.006
        0.000  -0.013  -0.008   0.001   0.006   0.001   0.006   0.001   0.006

    2  -0.013  -0.471  -0.000  -0.004   0.000  -0.004   0.000  -0.004   0.000
        0.013   0.000  -0.014  -0.000  -0.001  -0.000  -0.001  -0.000  -0.001

  chi0(G,G') at the    9 th omega   0.0000 101.6496 [eV]
       1       2       3       4       5       6       7       8       9
    1  -0.037  -0.024   0.015   0.001  -0.012   0.001  -0.012   0.001  -0.012
        0.000  -0.024  -0.015   0.001   0.012   0.001   0.012   0.001   0.012

    2  -0.024  -0.837  -0.000  -0.008   0.000  -0.008   0.000  -0.008   0.000
        0.024   0.000  -0.027  -0.000  -0.003  -0.000  -0.003  -0.000  -0.003

  chi0(G,G') at the   10 th omega   0.0000  76.0582 [eV]
       1       2       3       4       5       6       7       8       9
    1  -0.066  -0.041   0.026   0.002  -0.020   0.002  -0.020   0.002  -0.020
        0.000  -0.041  -0.026   0.002   0.020   0.002   0.020   0.002   0.020

    2  -0.041  -1.376  -0.000  -0.012   0.000  -0.012   0.000  -0.012   0.000
        0.041   0.000  -0.049  -0.000  -0.006  -0.000  -0.006  -0.000  -0.006

  chi0(G,G') at the   11 th omega   0.0000  57.9802 [eV]
       1       2       3       4       5       6       7       8       9
    1  -0.111  -0.067   0.043   0.003  -0.034   0.003  -0.034   0.003  -0.034
        0.000  -0.067  -0.043   0.003   0.034   0.003   0.034   0.003   0.034

    2  -0.067  -2.119  -0.000  -0.016  -0.000  -0.016   0.000  -0.016   0.000
        0.067   0.000  -0.087  -0.000  -0.013  -0.000  -0.013  -0.000  -0.013

  chi0(G,G') at the   12 th omega   0.0000  44.7637 [eV]
       1       2       3       4       5       6       7       8       9
    1  -0.182  -0.106   0.069   0.003  -0.055   0.003  -0.055   0.003  -0.055
        0.000  -0.106  -0.069   0.003   0.055   0.003   0.055   0.003   0.055

    2  -0.106  -3.082  -0.000  -0.020  -0.000  -0.020   0.000  -0.020   0.000
        0.106   0.000  -0.150  -0.000  -0.024  -0.000  -0.024  -0.000  -0.024

  chi0(G,G') at the   13 th omega   0.0000  34.8347 [eV]
       1       2       3       4       5       6       7       8       9
    1  -0.293  -0.161   0.109   0.003  -0.086   0.003  -0.086   0.003  -0.086
        0.000  -0.161  -0.109   0.003   0.086   0.003   0.086   0.003   0.086

    2  -0.161  -4.264  -0.000  -0.021   0.000  -0.021   0.000  -0.021   0.000
        0.161   0.000  -0.251  -0.000  -0.040  -0.000  -0.040  -0.000  -0.040

  chi0(G,G') at the   14 th omega   0.0000  27.2114 [eV]
       1       2       3       4       5       6       7       8       9
    1  -0.463  -0.239   0.170  -0.001  -0.134  -0.001  -0.134  -0.001  -0.134
        0.000  -0.239  -0.170  -0.001   0.134  -0.001   0.134  -0.001   0.134

    2  -0.239  -5.645  -0.000  -0.017   0.000  -0.017   0.000  -0.017   0.000
        0.239   0.000  -0.405  -0.000  -0.058  -0.000  -0.058  -0.000  -0.058

  chi0(G,G') at the   15 th omega   0.0000  21.2564 [eV]
       1       2       3       4       5       6       7       8       9
    1  -0.721  -0.345   0.260  -0.010  -0.203  -0.010  -0.203  -0.010  -0.203
        0.000  -0.345  -0.260  -0.010   0.203  -0.010   0.203  -0.010   0.203

    2  -0.345  -7.192  -0.000  -0.010   0.000  -0.010   0.000  -0.010   0.000
        0.345   0.000  -0.630  -0.000  -0.073  -0.000  -0.073  -0.000  -0.073

 No. of calculated frequencies >  15, stop printing
  Average fulfillment of the sum rule on Im[epsilon] for q-point    3 :     95.48  [%]


--------------------------------------------------------------------------------
  q-point number  4        q = ( 0.375000, 0.000000, 0.000000) [r.l.u.]
--------------------------------------------------------------------------------
  chi0(G,G') at the    1 th omega   0.0000   0.0000 [eV]
       1       2       3       4       5       6       7       8       9
    1 -12.331  -1.964   2.772  -1.580  -2.348  -1.580  -2.348  -1.580  -2.348
        0.000  -1.964  -2.772  -1.580   2.348  -1.580   2.348  -1.580   2.348

    2  -1.964 -17.916   0.000  -0.010   0.000  -0.010   0.000  -0.010  -0.000
        1.964   0.000  -3.763  -0.000   0.124   0.000   0.124  -0.000   0.124

  chi0(G,G') at the    2 th omega   0.0000********* [eV]
       1       2       3       4       5       6       7       8       9
    1  -0.000  -0.000   0.000  -0.000  -0.000  -0.000  -0.000  -0.000  -0.000
        0.000  -0.000  -0.000  -0.000   0.000  -0.000   0.000  -0.000   0.000

    2  -0.000  -0.000  -0.000  -0.000  -0.000  -0.000  -0.000  -0.000  -0.000
        0.000   0.000  -0.000  -0.000  -0.000  -0.000  -0.000   0.000  -0.000

  chi0(G,G') at the    3 th omega   0.00002304.9186 [eV]
       1       2       3       4       5       6       7       8       9
    1  -0.000  -0.000   0.000  -0.000  -0.000  -0.000  -0.000  -0.000  -0.000
        0.000  -0.000  -0.000  -0.000   0.000  -0.000   0.000  -0.000   0.000

    2  -0.000  -0.002  -0.000  -0.000  -0.000  -0.000  -0.000  -0.000  -0.000
        0.000   0.000  -0.000  -0.000  -0.000  -0.000  -0.000   0.000  -0.000

  chi0(G,G') at the    4 th omega   0.0000 927.1483 [eV]
       1       2       3       4       5       6       7       8       9
    1  -0.001  -0.001   0.000  -0.000  -0.000  -0.000  -0.000  -0.000  -0.000
        0.000  -0.001  -0.000  -0.000   0.000  -0.000   0.000  -0.000   0.000

    2  -0.001  -0.014  -0.000  -0.000  -0.000  -0.000  -0.000  -0.000  -0.000
        0.001   0.000  -0.000  -0.000  -0.000  -0.000  -0.000   0.000  -0.000

  chi0(G,G') at the    5 th omega   0.0000 491.0612 [eV]
       1       2       3       4       5       6       7       8       9
    1  -0.004  -0.002   0.001  -0.000  -0.001  -0.000  -0.001  -0.000  -0.001
        0.000  -0.002  -0.001  -0.000   0.001  -0.000   0.001  -0.000   0.001

    2  -0.002  -0.050  -0.000  -0.000  -0.000  -0.000  -0.000  -0.000  -0.000
        0.002   0.000  -0.001  -0.000  -0.000  -0.000  -0.000   0.000  -0.000

  chi0(G,G') at the    6 th omega   0.0000 299.5395 [eV]
       1       2       3       4       5       6       7       8       9
    1  -0.010  -0.005   0.002  -0.000  -0.003  -0.000  -0.003  -0.000  -0.003
        0.000  -0.005  -0.002  -0.000   0.003  -0.000   0.003  -0.000   0.003

    2  -0.005  -0.131  -0.000  -0.001  -0.000  -0.001  -0.000  -0.001  -0.000
        0.005   0.000  -0.003  -0.000  -0.000   0.000  -0.000   0.000  -0.000

  chi0(G,G') at the    7 th omega   0.0000 198.8524 [eV]
       1       2       3       4       5       6       7       8       9
    1  -0.022  -0.011   0.005  -0.000  -0.006  -0.000  -0.006  -0.000  -0.006
        0.000  -0.011  -0.005  -0.000   0.006  -0.000   0.006  -0.000   0.006

    2  -0.011  -0.289  -0.000  -0.001  -0.000  -0.001  -0.000  -0.001  -0.000
        0.011   0.000  -0.006  -0.000  -0.000   0.000  -0.000   0.000  -0.000

  chi0(G,G') at the    8 th omega   0.0000 139.5079 [eV]
       1       2       3       4       5       6       7       8       9
    1  -0.045  -0.022   0.010  -0.001  -0.012  -0.001  -0.012  -0.001  -0.012
        0.000  -0.022  -0.010  -0.001   0.012  -0.001   0.012  -0.001   0.012

    2  -0.022  -0.560  -0.000  -0.002  -0.000  -0.002  -0.000  -0.002  -0.000
        0.022   0.000  -0.013  -0.000  -0.001  -0.000  -0.001   0.000  -0.001

  chi0(G,G') at the    9 th omega   0.0000 101.6496 [eV]
       1       2       3       4       5       6       7       8       9
    1  -0.083  -0.040   0.019  -0.002  -0.022  -0.002  -0.022  -0.002  -0.022
        0.000  -0.040  -0.019  -0.002   0.022  -0.002   0.022  -0.002   0.022

    2  -0.040  -0.983  -0.000  -0.003  -0.000  -0.003  -0.000  -0.003  -0.000
        0.040   0.000  -0.024  -0.000  -0.003   0.000  -0.003   0.000  -0.003

  chi0(G,G') at the   10 th omega   0.0000  76.0582 [eV]
       1       2       3       4       5       6       7       8       9
    1  -0.147  -0.067   0.032  -0.004  -0.037  -0.004  -0.037  -0.004  -0.037
        0.000  -0.067  -0.032  -0.004   0.037  -0.004   0.037  -0.004   0.037

    2  -0.067  -1.589  -0.000  -0.004  -0.000  -0.004  -0.000  -0.004  -0.000
        0.067   0.000  -0.045  -0.000  -0.007  -0.000  -0.007   0.000  -0.007

  chi0(G,G') at the   11 th omega   0.0000  57.9802 [eV]
       1       2       3       4       5       6       7       8       9
    1  -0.247  -0.108   0.054  -0.008  -0.062  -0.008  -0.062  -0.008  -0.062
        0.000  -0.108  -0.054  -0.008   0.062  -0.008   0.062  -0.008   0.062

    2  -0.108  -2.399   0.000  -0.005  -0.000  -0.005  -0.000  -0.005  -0.000
        0.108   0.000  -0.079  -0.000  -0.014  -0.000  -0.014   0.000  -0.014

  chi0(G,G') at the   12 th omega   0.0000  44.7637 [eV]
       1       2       3       4       5       6       7       8       9
    1  -0.403  -0.168   0.087  -0.015  -0.099  -0.015  -0.099  -0.015  -0.099
        0.000  -0.168  -0.087  -0.015   0.099  -0.015   0.099  -0.015   0.099

    2  -0.168  -3.414   0.000  -0.003  -0.000  -0.003  -0.000  -0.003  -0.000
        0.168   0.000  -0.136  -0.000  -0.025  -0.000  -0.025  -0.000  -0.025

  chi0(G,G') at the   13 th omega   0.0000  34.8347 [eV]
       1       2       3       4       5       6       7       8       9
    1  -0.641  -0.252   0.138  -0.029  -0.155  -0.029  -0.155  -0.029  -0.155
        0.000  -0.252  -0.138  -0.029   0.155  -0.029   0.155  -0.029   0.155

    2  -0.252  -4.619   0.000   0.000  -0.000   0.000  -0.000   0.000  -0.000
        0.252   0.000  -0.226  -0.000  -0.039  -0.000  -0.039   0.000  -0.039

  chi0(G,G') at the   14 th omega   0.0000  27.2114 [eV]
       1       2       3       4       5       6       7       8       9
    1  -0.997  -0.366   0.216  -0.053  -0.236  -0.053  -0.236  -0.053  -0.236
        0.000  -0.366  -0.216  -0.053   0.236  -0.053   0.236  -0.053   0.236

    2  -0.366  -5.983   0.000   0.007  -0.000   0.007  -0.000   0.007  -0.000
        0.366   0.000  -0.365  -0.000  -0.053  -0.000  -0.053  -0.000  -0.053

  chi0(G,G') at the   15 th omega   0.0000  21.2564 [eV]
       1       2       3       4       5       6       7       8       9
    1  -1.521  -0.518   0.331  -0.096  -0.353  -0.096  -0.353  -0.096  -0.353
        0.000  -0.518  -0.331  -0.096   0.353  -0.096   0.353  -0.096   0.353

    2  -0.518  -7.469   0.000   0.016  -0.000   0.016  -0.000   0.016  -0.000
        0.518   0.000  -0.568  -0.000  -0.063  -0.000  -0.063  -0.000  -0.063

 No. of calculated frequencies >  15, stop printing
  Average fulfillment of the sum rule on Im[epsilon] for q-point    4 :     95.56  [%]


--------------------------------------------------------------------------------
  q-point number  5        q = ( 0.500000, 0.000000, 0.000000) [r.l.u.]
--------------------------------------------------------------------------------
  chi0(G,G') at the    1 th omega   0.0000   0.0000 [eV]
       1       2       3       4       5       6       7       8       9
    1 -14.555  -2.272   2.876  -1.977  -2.540  -1.977  -2.540  -1.977  -2.540
        0.000  -2.272  -2.876  -1.977   2.540  -1.977   2.540  -1.977   2.540

    2  -2.272 -16.925  -0.000   0.309   0.000   0.309   0.000   0.309   0.000
        2.272   0.000  -3.560  -0.000   0.223  -0.000   0.223  -0.000   0.223

  chi0(G,G') at the    2 th omega   0.0000********* [eV]
       1       2       3       4       5       6       7       8       9
    1  -0.000  -0.000   0.000  -0.000  -0.000  -0.000  -0.000  -0.000  -0.000
        0.000  -0.000  -0.000  -0.000   0.000  -0.000   0.000  -0.000   0.000

    2  -0.000  -0.000   0.000  -0.000   0.000  -0.000   0.000  -0.000   0.000
        0.000   0.000  -0.000   0.000  -0.000   0.000  -0.000   0.000  -0.000

  chi0(G,G') at the    3 th omega   0.00002304.9186 [eV]
       1       2       3       4       5       6       7       8       9
    1  -0.000  -0.000   0.000  -0.000  -0.000  -0.000  -0.000  -0.000  -0.000
        0.000  -0.000  -0.000  -0.000   0.000  -0.000   0.000  -0.000   0.000

    2  -0.000  -0.003   0.000  -0.000   0.000  -0.000   0.000  -0.000   0.000
        0.000   0.000  -0.000   0.000  -0.000   0.000  -0.000   0.000  -0.000

  chi0(G,G') at the    4 th omega   0.0000 927.1483 [eV]
       1       2       3       4       5       6       7       8       9
    1  -0.002  -0.001   0.000  -0.000  -0.000  -0.000  -0.000  -0.000  -0.000
        0.000  -0.001  -0.000  -0.000   0.000  -0.000   0.000  -0.000   0.000

    2  -0.001  -0.017   0.000  -0.000   0.000  -0.000   0.000  -0.000   0.000
        0.001   0.000  -0.000   0.000  -0.000   0.000  -0.000   0.000  -0.000

  chi0(G,G') at the    5 th omega   0.0000 491.0612 [eV]
       1       2       3       4       5       6       7       8       9
    1  -0.007  -0.003   0.001  -0.000  -0.002  -0.000  -0.002  -0.000  -0.002
        0.000  -0.003  -0.001  -0.000   0.002  -0.000   0.002  -0.000   0.002

    2  -0.003  -0.059   0.000  -0.000   0.000  -0.000   0.000  -0.000   0.000
        0.003   0.000  -0.001   0.000  -0.000   0.000  -0.000   0.000  -0.000

  chi0(G,G') at the    6 th omega   0.0000 299.5395 [eV]
       1       2       3       4       5       6       7       8       9
    1  -0.018  -0.007   0.002  -0.001  -0.004  -0.001  -0.004  -0.001  -0.004
        0.000  -0.007  -0.002  -0.001   0.004  -0.001   0.004  -0.001   0.004

    2  -0.007  -0.155   0.000  -0.000   0.000  -0.000   0.000  -0.000   0.000
        0.007   0.000  -0.002   0.000  -0.000   0.000  -0.000   0.000  -0.000

  chi0(G,G') at the    7 th omega   0.0000 198.8524 [eV]
       1       2       3       4       5       6       7       8       9
    1  -0.040  -0.016   0.005  -0.002  -0.009  -0.002  -0.009  -0.002  -0.009
        0.000  -0.016  -0.005  -0.002   0.009  -0.002   0.009  -0.002   0.009

    2  -0.016  -0.340   0.000   0.000   0.000   0.000   0.000   0.000   0.000
        0.016   0.000  -0.005   0.000  -0.001   0.000  -0.001   0.000  -0.001

  chi0(G,G') at the    8 th omega   0.0000 139.5079 [eV]
       1       2       3       4       5       6       7       8       9
    1  -0.080  -0.032   0.011  -0.004  -0.018  -0.004  -0.018  -0.004  -0.018
        0.000  -0.032  -0.011  -0.004   0.018  -0.004   0.018  -0.004   0.018

    2  -0.032  -0.653   0.000   0.001   0.000   0.001   0.000   0.001   0.000
        0.032   0.000  -0.011   0.000  -0.002   0.000  -0.002   0.000  -0.002

  chi0(G,G') at the    9 th omega   0.0000 101.6496 [eV]
       1       2       3       4       5       6       7       8       9
    1  -0.148  -0.057   0.020  -0.008  -0.034  -0.008  -0.034  -0.008  -0.034
        0.000  -0.057  -0.020  -0.008   0.034  -0.008   0.034  -0.008   0.034

    2  -0.057  -1.129   0.000   0.002   0.000   0.002   0.000   0.002   0.000
        0.057   0.000  -0.021   0.000  -0.004   0.000  -0.004   0.000  -0.004

  chi0(G,G') at the   10 th omega   0.0000  76.0582 [eV]
       1       2       3       4       5       6       7       8       9
    1  -0.258  -0.096   0.035  -0.015  -0.058  -0.015  -0.058  -0.015  -0.058
        0.000  -0.096  -0.035  -0.015   0.058  -0.015   0.058  -0.015   0.058

    2  -0.096  -1.793   0.000   0.004   0.000   0.004   0.000   0.004   0.000
        0.096   0.000  -0.039   0.000  -0.008   0.000  -0.008   0.000  -0.008

  chi0(G,G') at the   11 th omega   0.0000  57.9802 [eV]
       1       2       3       4       5       6       7       8       9
    1  -0.432  -0.153   0.058  -0.026  -0.095  -0.026  -0.095  -0.026  -0.095
        0.000  -0.153  -0.058  -0.026   0.095  -0.026   0.095  -0.026   0.095

    2  -0.153  -2.651   0.000   0.008   0.000   0.008   0.000   0.008   0.000
        0.153   0.000  -0.068   0.000  -0.015   0.000  -0.015   0.000  -0.015

  chi0(G,G') at the   12 th omega   0.0000  44.7637 [eV]
       1       2       3       4       5       6       7       8       9
    1  -0.697  -0.233   0.093  -0.046  -0.152  -0.046  -0.152  -0.046  -0.152
        0.000  -0.233  -0.093  -0.046   0.152  -0.046   0.152  -0.046   0.152

    2  -0.233  -3.690   0.000   0.013   0.000   0.013   0.000   0.013   0.000
        0.233   0.000  -0.117   0.000  -0.025   0.000  -0.025   0.000  -0.025

  chi0(G,G') at the   13 th omega   0.0000  34.8347 [eV]
       1       2       3       4       5       6       7       8       9
    1  -1.094  -0.344   0.148  -0.079  -0.234  -0.079  -0.234  -0.079  -0.234
        0.000  -0.344  -0.148  -0.079   0.234  -0.079   0.234  -0.079   0.234

    2  -0.344  -4.883   0.000   0.021   0.000   0.021   0.000   0.021   0.000
        0.344   0.000  -0.193  -0.000  -0.037   0.000  -0.037   0.000  -0.037

  chi0(G,G') at the   14 th omega   0.0000  27.2114 [eV]
       1       2       3       4       5       6       7       8       9
    1  -1.670  -0.490   0.231  -0.133  -0.351  -0.133  -0.351  -0.133  -0.351
        0.000  -0.490  -0.231  -0.133   0.351  -0.133   0.351  -0.133   0.351

    2  -0.490  -6.194   0.000   0.031   0.000   0.031   0.000   0.031   0.000
        0.490   0.000  -0.310  -0.000  -0.049   0.000  -0.049   0.000  -0.049

  chi0(G,G') at the   15 th omega   0.0000  21.2564 [eV]
       1       2       3       4       5       6       7       8       9
    1  -2.482  -0.676   0.355  -0.219  -0.511  -0.219  -0.511  -0.219  -0.511
        0.000  -0.676  -0.355  -0.219   0.511  -0.219   0.511  -0.219   0.511

    2  -0.676  -7.585   0.000   0.043   0.000   0.043   0.000   0.043   0.000
        0.676   0.000  -0.484  -0.000  -0.056   0.000  -0.056   0.000  -0.056

 No. of calculated frequencies >  15, stop printing
  Average fulfillment of the sum rule on Im[epsilon] for q-point    5 :     95.59  [%]


--------------------------------------------------------------------------------
  q-point number  6        q = ( 0.125000, 0.125000, 0.000000) [r.l.u.]
--------------------------------------------------------------------------------
  chi0(G,G') at the    1 th omega   0.0000   0.0000 [eV]
       1       2       3       4       5       6       7       8       9
    1  -4.746  -1.400   0.341   0.341  -1.400   0.341  -1.400  -1.400   0.341
        0.000  -1.400  -0.341   0.341   1.400   0.341   1.400  -1.400  -0.341

    2  -1.400 -19.128  -0.000  -0.242  -0.000  -0.242   0.000  -0.544   0.000
        1.400   0.000  -4.005  -0.000   0.071   0.000   0.071   0.000  -0.287

  chi0(G,G') at the    2 th omega   0.0000********* [eV]
       1       2       3       4       5       6       7       8       9
    1  -0.000  -0.000   0.000   0.000  -0.000   0.000  -0.000  -0.000   0.000
        0.000  -0.000  -0.000   0.000   0.000   0.000   0.000  -0.000  -0.000

    2  -0.000  -0.000  -0.000  -0.000   0.000  -0.000   0.000  -0.000   0.000
        0.000   0.000  -0.000  -0.000  -0.000   0.000  -0.000   0.000  -0.000

  chi0(G,G') at the    3 th omega   0.00002304.9186 [eV]
       1       2       3       4       5       6       7       8       9
    1  -0.000  -0.000   0.000   0.000  -0.000   0.000  -0.000  -0.000   0.000
        0.000  -0.000  -0.000   0.000   0.000   0.000   0.000  -0.000  -0.000

    2  -0.000  -0.001  -0.000  -0.000   0.000  -0.000   0.000  -0.000   0.000
        0.000   0.000  -0.000  -0.000  -0.000   0.000  -0.000   0.000  -0.000

  chi0(G,G') at the    4 th omega   0.0000 927.1483 [eV]
       1       2       3       4       5       6       7       8       9
    1  -0.000  -0.000   0.000   0.000  -0.000   0.000  -0.000  -0.000   0.000
        0.000  -0.000  -0.000   0.000   0.000   0.000   0.000  -0.000  -0.000

    2  -0.000  -0.009  -0.000  -0.000   0.000  -0.000   0.000  -0.000   0.000
        0.000   0.000  -0.000  -0.000  -0.000   0.000  -0.000   0.000  -0.000

  chi0(G,G') at the    5 th omega   0.0000 491.0612 [eV]
       1       2       3       4       5       6       7       8       9
    1  -0.001  -0.000   0.000   0.000  -0.000   0.000  -0.000  -0.000   0.000
        0.000  -0.000  -0.000   0.000   0.000   0.000   0.000  -0.000  -0.000

    2  -0.000  -0.031  -0.000  -0.001   0.000  -0.001   0.000  -0.000   0.000
        0.000   0.000  -0.001  -0.000  -0.000   0.000  -0.000   0.000  -0.000

  chi0(G,G') at the    6 th omega   0.0000 299.5395 [eV]
       1       2       3       4       5       6       7       8       9
    1  -0.001  -0.001   0.001   0.001  -0.001   0.001  -0.001  -0.001   0.001
        0.000  -0.001  -0.001   0.001   0.001   0.001   0.001  -0.001  -0.001

    2  -0.001  -0.083  -0.000  -0.002   0.000  -0.002   0.000  -0.001   0.000
[...]
        0.000   0.000   0.000  -0.000   0.000  -0.000   0.000  -0.000  -0.000

    2   0.000  -0.000   0.000  -0.000  -0.000  -0.000   0.000   0.000   0.000
       -0.000   0.000  -0.000   0.000   0.000  -0.000  -0.000   0.000  -0.000

  chi0(G,G') at the    3 th omega   0.00002304.9186 [eV]
       1       2       3       4       5       6       7       8       9
    1  -0.001   0.000  -0.000  -0.000  -0.000  -0.000  -0.000  -0.000   0.000
        0.000   0.000   0.000  -0.000   0.000  -0.000   0.000  -0.000  -0.000

    2   0.000  -0.000   0.000  -0.000  -0.000  -0.000   0.000   0.000   0.000
       -0.000   0.000  -0.000  -0.000   0.000  -0.000  -0.000   0.000  -0.000

  chi0(G,G') at the    4 th omega   0.0000 927.1483 [eV]
       1       2       3       4       5       6       7       8       9
    1  -0.004   0.000  -0.001  -0.001  -0.000  -0.000  -0.001  -0.001   0.000
        0.000   0.000   0.001  -0.001   0.000  -0.000   0.001  -0.001  -0.000

    2   0.000  -0.003   0.000  -0.000  -0.000  -0.000   0.000   0.000   0.000
       -0.000   0.000  -0.000  -0.000   0.000  -0.000  -0.000   0.000   0.000

  chi0(G,G') at the    5 th omega   0.0000 491.0612 [eV]
       1       2       3       4       5       6       7       8       9
    1  -0.014   0.000  -0.004  -0.002  -0.002  -0.002  -0.002  -0.004   0.000
        0.000   0.000   0.004  -0.002   0.002  -0.002   0.002  -0.004  -0.000

    2   0.000  -0.009  -0.000  -0.001  -0.000  -0.001   0.000   0.000   0.000
       -0.000   0.000  -0.001  -0.000   0.000  -0.000  -0.000   0.000  -0.000

  chi0(G,G') at the    6 th omega   0.0000 299.5395 [eV]
       1       2       3       4       5       6       7       8       9
    1  -0.037   0.001  -0.011  -0.006  -0.005  -0.005  -0.006  -0.011   0.001
        0.000   0.001   0.011  -0.006   0.005  -0.005   0.006  -0.011  -0.001

    2   0.001  -0.025   0.000  -0.001  -0.000  -0.002   0.000   0.000   0.000
       -0.001   0.000  -0.001   0.000   0.000  -0.000  -0.000   0.000   0.000

  chi0(G,G') at the    7 th omega   0.0000 198.8524 [eV]
       1       2       3       4       5       6       7       8       9
    1  -0.082   0.001  -0.024  -0.014  -0.010  -0.010  -0.014  -0.024   0.001
        0.000   0.001   0.024  -0.014   0.010  -0.010   0.014  -0.024  -0.001

    2   0.001  -0.056  -0.000  -0.003  -0.000  -0.004   0.000   0.001   0.000
       -0.001   0.000  -0.003  -0.000   0.000  -0.000  -0.000   0.000  -0.000

  chi0(G,G') at the    8 th omega   0.0000 139.5079 [eV]
       1       2       3       4       5       6       7       8       9
    1  -0.164   0.002  -0.047  -0.027  -0.020  -0.020  -0.027  -0.047   0.002
        0.000   0.002   0.047  -0.027   0.020  -0.020   0.027  -0.047  -0.002

    2   0.002  -0.112   0.000  -0.007  -0.000  -0.009   0.000   0.001   0.000
       -0.002   0.000  -0.007  -0.000   0.000  -0.000  -0.000   0.000  -0.000

  chi0(G,G') at the    9 th omega   0.0000 101.6496 [eV]
       1       2       3       4       5       6       7       8       9
    1  -0.302   0.004  -0.083  -0.050  -0.037  -0.037  -0.050  -0.083   0.004
        0.000   0.004   0.083  -0.050   0.037  -0.037   0.050  -0.083  -0.004

    2   0.004  -0.208   0.000  -0.012   0.000  -0.017   0.000   0.003   0.000
       -0.004   0.000  -0.013  -0.000   0.000  -0.000  -0.000   0.000  -0.000

  chi0(G,G') at the   10 th omega   0.0000  76.0582 [eV]
       1       2       3       4       5       6       7       8       9
    1  -0.523   0.006  -0.138  -0.085  -0.065  -0.065  -0.085  -0.138   0.006
        0.000   0.006   0.138  -0.085   0.065  -0.065   0.085  -0.138  -0.006

    2   0.006  -0.362  -0.000  -0.020  -0.000  -0.030   0.000   0.005   0.000
       -0.006   0.000  -0.025  -0.000   0.000  -0.000  -0.001   0.000  -0.000

  chi0(G,G') at the   11 th omega   0.0000  57.9802 [eV]
       1       2       3       4       5       6       7       8       9
    1  -0.860   0.008  -0.218  -0.140  -0.109  -0.109  -0.140  -0.218   0.008
        0.000   0.008   0.218  -0.140   0.109  -0.109   0.140  -0.218  -0.008

    2   0.008  -0.601  -0.000  -0.032   0.000  -0.047   0.000   0.009   0.000
       -0.008   0.000  -0.043  -0.000   0.000  -0.000  -0.002   0.000  -0.000

  chi0(G,G') at the   12 th omega   0.0000  44.7637 [eV]
       1       2       3       4       5       6       7       8       9
    1  -1.356   0.008  -0.327  -0.222  -0.176  -0.176  -0.222  -0.327   0.008
        0.000   0.008   0.327  -0.222   0.176  -0.176   0.222  -0.327  -0.008

    2   0.008  -0.963  -0.000  -0.047   0.000  -0.069   0.000   0.013   0.000
       -0.008   0.000  -0.072  -0.000   0.000  -0.000  -0.005   0.000   0.000

  chi0(G,G') at the   13 th omega   0.0000  34.8347 [eV]
       1       2       3       4       5       6       7       8       9
    1  -2.061   0.005  -0.471  -0.338  -0.275  -0.275  -0.338  -0.471   0.005
        0.000   0.005   0.471  -0.338   0.275  -0.275   0.338  -0.471  -0.005

    2   0.005  -1.492  -0.000  -0.064   0.000  -0.093   0.000   0.018   0.000
       -0.005   0.000  -0.116  -0.000   0.000  -0.000  -0.009   0.000   0.000

  chi0(G,G') at the   14 th omega   0.0000  27.2114 [eV]
       1       2       3       4       5       6       7       8       9
    1  -3.023  -0.008  -0.654  -0.497  -0.416  -0.416  -0.497  -0.654  -0.008
        0.000  -0.008   0.654  -0.497   0.416  -0.416   0.497  -0.654   0.008

    2  -0.008  -2.243  -0.000  -0.083   0.000  -0.116   0.000   0.024   0.000
        0.008   0.000  -0.180  -0.000   0.000  -0.000  -0.016   0.000  -0.000

  chi0(G,G') at the   15 th omega   0.0000  21.2564 [eV]
       1       2       3       4       5       6       7       8       9
    1  -4.282  -0.038  -0.877  -0.702  -0.604  -0.604  -0.702  -0.877  -0.038
        0.000  -0.038   0.877  -0.702   0.604  -0.604   0.702  -0.877   0.038

    2  -0.038  -3.272  -0.000  -0.107   0.000  -0.134   0.000   0.030   0.000
        0.038   0.000  -0.269  -0.000   0.000   0.000  -0.026   0.000   0.000

 No. of calculated frequencies >  15, stop printing
  Average fulfillment of the sum rule on Im[epsilon] for q-point   28 :     95.62  [%]


--------------------------------------------------------------------------------
  q-point number 29        q = (-0.250000, 0.500000, 0.250000) [r.l.u.]
--------------------------------------------------------------------------------
  chi0(G,G') at the    1 th omega   0.0000   0.0000 [eV]
       1       2       3       4       5       6       7       8       9
    1 -19.554  -1.521  -2.964  -2.929  -2.455  -2.455  -2.929  -2.964  -1.521
        0.000  -1.521   2.964  -2.929   2.455  -2.455   2.929  -2.964   1.521

    2  -1.521 -19.554  -0.000  -0.150  -0.000   1.316  -0.000  -0.231   0.000
        1.521   0.000  -2.086   0.000   0.000  -0.000   0.122   0.000   0.000

  chi0(G,G') at the    2 th omega   0.0000********* [eV]
       1       2       3       4       5       6       7       8       9
    1  -0.000   0.000  -0.000  -0.000  -0.000  -0.000  -0.000  -0.000   0.000
        0.000   0.000   0.000  -0.000   0.000  -0.000   0.000  -0.000  -0.000

    2   0.000  -0.000  -0.000  -0.000  -0.000  -0.000   0.000  -0.000  -0.000
       -0.000   0.000  -0.000  -0.000  -0.000  -0.000  -0.000  -0.000   0.000

  chi0(G,G') at the    3 th omega   0.00002304.9186 [eV]
       1       2       3       4       5       6       7       8       9
    1  -0.000   0.000  -0.000  -0.000  -0.000  -0.000  -0.000  -0.000   0.000
        0.000   0.000   0.000  -0.000   0.000  -0.000   0.000  -0.000  -0.000

    2   0.000  -0.000  -0.000  -0.000  -0.000  -0.000   0.000  -0.000  -0.000
       -0.000   0.000  -0.000  -0.000   0.000  -0.000  -0.000  -0.000  -0.000

  chi0(G,G') at the    4 th omega   0.0000 927.1483 [eV]
       1       2       3       4       5       6       7       8       9
    1  -0.003   0.000  -0.001  -0.001  -0.000  -0.000  -0.001  -0.001   0.000
        0.000   0.000   0.001  -0.001   0.000  -0.000   0.001  -0.001  -0.000

    2   0.000  -0.003  -0.000  -0.000  -0.000  -0.000   0.000  -0.000  -0.000
       -0.000   0.000  -0.000  -0.000  -0.000  -0.000  -0.000  -0.000   0.000

  chi0(G,G') at the    5 th omega   0.0000 491.0612 [eV]
       1       2       3       4       5       6       7       8       9
    1  -0.011   0.000  -0.003  -0.002  -0.001  -0.001  -0.002  -0.003   0.000
        0.000   0.000   0.003  -0.002   0.001  -0.001   0.002  -0.003  -0.000

    2   0.000  -0.011  -0.000  -0.000  -0.000  -0.001   0.000  -0.000  -0.000
       -0.000   0.000  -0.001  -0.000  -0.000  -0.000  -0.000  -0.000  -0.000

  chi0(G,G') at the    6 th omega   0.0000 299.5395 [eV]
       1       2       3       4       5       6       7       8       9
    1  -0.029   0.001  -0.009  -0.006  -0.003  -0.003  -0.006  -0.009   0.001
        0.000   0.001   0.009  -0.006   0.003  -0.003   0.006  -0.009  -0.001

    2   0.001  -0.029  -0.000  -0.001  -0.000  -0.002   0.000  -0.000  -0.000
       -0.001   0.000  -0.002  -0.000   0.000  -0.000  -0.000  -0.000   0.000

  chi0(G,G') at the    7 th omega   0.0000 198.8524 [eV]
       1       2       3       4       5       6       7       8       9
    1  -0.066   0.002  -0.020  -0.013  -0.006  -0.006  -0.013  -0.020   0.002
        0.000   0.002   0.020  -0.013   0.006  -0.006   0.013  -0.020  -0.002

    2   0.002  -0.066  -0.000  -0.003  -0.000  -0.005   0.000  -0.000  -0.000
       -0.002   0.000  -0.004  -0.000  -0.000  -0.000  -0.000  -0.000   0.000

  chi0(G,G') at the    8 th omega   0.0000 139.5079 [eV]
       1       2       3       4       5       6       7       8       9
    1  -0.132   0.003  -0.039  -0.026  -0.012  -0.012  -0.026  -0.039   0.003
        0.000   0.003   0.039  -0.026   0.012  -0.012   0.026  -0.039  -0.003

    2   0.003  -0.132  -0.000  -0.006  -0.000  -0.011   0.000  -0.000  -0.000
       -0.003   0.000  -0.009  -0.000  -0.000  -0.000  -0.000  -0.000   0.000

  chi0(G,G') at the    9 th omega   0.0000 101.6496 [eV]
       1       2       3       4       5       6       7       8       9
    1  -0.243   0.006  -0.070  -0.047  -0.022  -0.022  -0.047  -0.070   0.006
        0.000   0.006   0.070  -0.047   0.022  -0.022   0.047  -0.070  -0.006

    2   0.006  -0.243  -0.000  -0.010  -0.000  -0.020   0.000  -0.000  -0.000
       -0.006   0.000  -0.016  -0.000  -0.000  -0.000  -0.001  -0.000   0.000

  chi0(G,G') at the   10 th omega   0.0000  76.0582 [eV]
       1       2       3       4       5       6       7       8       9
    1  -0.423   0.009  -0.117  -0.081  -0.039  -0.039  -0.081  -0.117   0.009
        0.000   0.009   0.117  -0.081   0.039  -0.039   0.081  -0.117  -0.009

    2   0.009  -0.423  -0.000  -0.018  -0.000  -0.036   0.000  -0.000  -0.000
       -0.009   0.000  -0.030  -0.000  -0.000  -0.000  -0.002  -0.000  -0.000

  chi0(G,G') at the   11 th omega   0.0000  57.9802 [eV]
       1       2       3       4       5       6       7       8       9
    1  -0.700   0.013  -0.186  -0.133  -0.067  -0.067  -0.133  -0.186   0.013
        0.000   0.013   0.186  -0.133   0.067  -0.067   0.133  -0.186  -0.013

    2   0.013  -0.700  -0.000  -0.027  -0.000  -0.057   0.000   0.000  -0.000
       -0.013   0.000  -0.053  -0.000  -0.000  -0.000  -0.005  -0.000   0.000

  chi0(G,G') at the   12 th omega   0.0000  44.7637 [eV]
       1       2       3       4       5       6       7       8       9
    1  -1.115   0.017  -0.283  -0.209  -0.112  -0.112  -0.209  -0.283   0.017
        0.000   0.017   0.283  -0.209   0.112  -0.112   0.209  -0.283  -0.017

    2   0.017  -1.115  -0.000  -0.039  -0.000  -0.084  -0.000   0.002  -0.000
       -0.017   0.000  -0.089  -0.000  -0.000  -0.000  -0.009  -0.000   0.000

  chi0(G,G') at the   13 th omega   0.0000  34.8347 [eV]
       1       2       3       4       5       6       7       8       9
    1  -1.714   0.019  -0.414  -0.319  -0.181  -0.181  -0.319  -0.414   0.019
        0.000   0.019   0.414  -0.319   0.181  -0.181   0.319  -0.414  -0.019

    2   0.019  -1.714  -0.000  -0.052  -0.000  -0.113  -0.000   0.003  -0.000
       -0.019   0.000  -0.145  -0.000  -0.000  -0.000  -0.018   0.000  -0.000

  chi0(G,G') at the   14 th omega   0.0000  27.2114 [eV]
       1       2       3       4       5       6       7       8       9
    1  -2.552   0.014  -0.585  -0.468  -0.286  -0.286  -0.468  -0.585   0.014
        0.000   0.014   0.585  -0.468   0.286  -0.286   0.468  -0.585  -0.014

    2   0.014  -2.552  -0.000  -0.068  -0.000  -0.136  -0.000   0.005  -0.000
       -0.014   0.000  -0.226   0.000  -0.000  -0.000  -0.030   0.000   0.000

  chi0(G,G') at the   15 th omega   0.0000  21.2564 [eV]
       1       2       3       4       5       6       7       8       9
    1  -3.679  -0.005  -0.797  -0.664  -0.435  -0.435  -0.664  -0.797  -0.005
        0.000  -0.005   0.797  -0.664   0.435  -0.435   0.664  -0.797   0.005

    2  -0.005  -3.679  -0.000  -0.088  -0.000  -0.144  -0.000   0.006  -0.000
        0.005   0.000  -0.340   0.000   0.000  -0.000  -0.046   0.000   0.000

 No. of calculated frequencies >  15, stop printing
  Average fulfillment of the sum rule on Im[epsilon] for q-point   29 :     95.62  [%]

================================================================================
== DATASET  2 ==================================================================
-   mpi_nproc: 256, omp_nthreads: -1 (-1 if OMP is not activated)


--- !DatasetInfo
iteration_state: {dtset: 2, }
dimensions: {natom: 2, nkpt: 29, mband: 480, nsppol: 1, nspinor: 1, nspden: 1, mpw: 995, }
cutoff_energies: {ecut:  18.0, pawecutdg:  -1.0, }
electrons: {nelect:   8.00000000E+00, charge:   0.00000000E+00, occopt:   1.00000000E+00, tsmear:   1.00000000E-02, }
meta: {optdriver: 4, gwcalctyp: 1, }
...

 mkfilename: getwfk from: ../outdata_gs_DS2_WFK

 mkfilename : getscr/=0, take file _SCR from output of DATASET   1.

 Exchange-correlation functional for the present dataset will be:
  GGA: Perdew-Burke-Ernzerhof functional - ixc=11
 Citation for XC functional:
  J.P.Perdew, K.Burke, M.Ernzerhof, PRL 77, 3865 (1996)

 SIGMA: Calculation of the GW corrections 

 Based on a program developped by R.W. Godby, V. Olevano, G. Onida, and L. Reining.
 Incorporated in ABINIT by V. Olevano, G.-M. Rignanese, and M. Torrent.
.Using single precision arithmetic ; gwpc =  4

 Real(R)+Recip(G) space primitive vectors, cartesian coordinates (Bohr,Bohr^-1):
 R(1)=  0.0000000  5.1300000  5.1300000  G(1)= -0.0974659  0.0974659  0.0974659
 R(2)=  5.1300000  0.0000000  5.1300000  G(2)=  0.0974659 -0.0974659  0.0974659
 R(3)=  5.1300000  5.1300000  0.0000000  G(3)=  0.0974659  0.0974659 -0.0974659
 Unit cell volume ucvol=  2.7001139E+02 bohr^3
 Angles (23,13,12)=  6.00000000E+01  6.00000000E+01  6.00000000E+01 degrees
--------------------------------------------------------------------------------


 setup_sigma : calculating Sigma(iw) at imaginary frequencies [eV] (Fermi Level set to 0) 

     0.000       0.000
     0.000       1.111
     0.000       2.222
     0.000       3.333
     0.000       4.444
     0.000       5.556
     0.000       6.667
     0.000       7.778
     0.000       8.889
     0.000      10.000
 ==== K-mesh for the wavefunctions ====
 Number of points in the irreducible wedge :    29
 Reduced coordinates and weights : 

     1)     0.00000000E+00  0.00000000E+00  0.00000000E+00       0.00195
     2)     1.25000000E-01  0.00000000E+00  0.00000000E+00       0.01563
     3)     2.50000000E-01  0.00000000E+00  0.00000000E+00       0.01563
     4)     3.75000000E-01  0.00000000E+00  0.00000000E+00       0.01563
     5)     5.00000000E-01  0.00000000E+00  0.00000000E+00       0.00781
     6)     1.25000000E-01  1.25000000E-01  0.00000000E+00       0.01172
     7)     2.50000000E-01  1.25000000E-01  0.00000000E+00       0.04688
     8)     3.75000000E-01  1.25000000E-01  0.00000000E+00       0.04688
     9)     5.00000000E-01  1.25000000E-01  0.00000000E+00       0.04688
    10)    -3.75000000E-01  1.25000000E-01  0.00000000E+00       0.04688
    11)    -2.50000000E-01  1.25000000E-01  0.00000000E+00       0.04688
    12)    -1.25000000E-01  1.25000000E-01  0.00000000E+00       0.02344
    13)     2.50000000E-01  2.50000000E-01  0.00000000E+00       0.01172
    14)     3.75000000E-01  2.50000000E-01  0.00000000E+00       0.04688
    15)     5.00000000E-01  2.50000000E-01  0.00000000E+00       0.04688
    16)    -3.75000000E-01  2.50000000E-01  0.00000000E+00       0.04688
    17)    -2.50000000E-01  2.50000000E-01  0.00000000E+00       0.02344
    18)     3.75000000E-01  3.75000000E-01  0.00000000E+00       0.01172
    19)     5.00000000E-01  3.75000000E-01  0.00000000E+00       0.04688
    20)    -3.75000000E-01  3.75000000E-01  0.00000000E+00       0.02344
    21)     5.00000000E-01  5.00000000E-01  0.00000000E+00       0.00586
    22)     3.75000000E-01  2.50000000E-01  1.25000000E-01       0.04688
    23)     5.00000000E-01  2.50000000E-01  1.25000000E-01       0.09375
    24)    -3.75000000E-01  2.50000000E-01  1.25000000E-01       0.04688
    25)     5.00000000E-01  3.75000000E-01  1.25000000E-01       0.04688
    26)    -3.75000000E-01  3.75000000E-01  1.25000000E-01       0.09375
    27)    -2.50000000E-01  3.75000000E-01  1.25000000E-01       0.04688
    28)    -3.75000000E-01  5.00000000E-01  1.25000000E-01       0.02344
    29)    -2.50000000E-01  5.00000000E-01  2.50000000E-01       0.01172

 Together with 48 symmetry operations and time-reversal symmetry 
 yields   512 points in the full Brillouin Zone.


 ==== Q-mesh for screening function ====
 Number of points in the irreducible wedge :    29
 Reduced coordinates and weights : 

     1)     0.00000000E+00  0.00000000E+00  0.00000000E+00       0.00195
     2)     1.25000000E-01  0.00000000E+00  0.00000000E+00       0.01563
     3)     2.50000000E-01  0.00000000E+00  0.00000000E+00       0.01563
     4)     3.75000000E-01  0.00000000E+00  0.00000000E+00       0.01563
     5)     5.00000000E-01  0.00000000E+00  0.00000000E+00       0.00781
     6)     1.25000000E-01  1.25000000E-01  0.00000000E+00       0.01172
     7)     2.50000000E-01  1.25000000E-01  0.00000000E+00       0.04688
     8)     3.75000000E-01  1.25000000E-01  0.00000000E+00       0.04688
     9)     5.00000000E-01  1.25000000E-01  0.00000000E+00       0.04688
    10)    -3.75000000E-01  1.25000000E-01  0.00000000E+00       0.04688
    11)    -2.50000000E-01  1.25000000E-01  0.00000000E+00       0.04688
    12)    -1.25000000E-01  1.25000000E-01  0.00000000E+00       0.02344
    13)     2.50000000E-01  2.50000000E-01  0.00000000E+00       0.01172
    14)     3.75000000E-01  2.50000000E-01  0.00000000E+00       0.04688
    15)     5.00000000E-01  2.50000000E-01  0.00000000E+00       0.04688
    16)    -3.75000000E-01  2.50000000E-01  0.00000000E+00       0.04688
    17)    -2.50000000E-01  2.50000000E-01  0.00000000E+00       0.02344
    18)     3.75000000E-01  3.75000000E-01  0.00000000E+00       0.01172
    19)     5.00000000E-01  3.75000000E-01  0.00000000E+00       0.04688
    20)    -3.75000000E-01  3.75000000E-01  0.00000000E+00       0.02344
    21)     5.00000000E-01  5.00000000E-01  0.00000000E+00       0.00586
    22)     3.75000000E-01  2.50000000E-01  1.25000000E-01       0.04688
    23)     5.00000000E-01  2.50000000E-01  1.25000000E-01       0.09375
    24)    -3.75000000E-01  2.50000000E-01  1.25000000E-01       0.04688
    25)     5.00000000E-01  3.75000000E-01  1.25000000E-01       0.04688
    26)    -3.75000000E-01  3.75000000E-01  1.25000000E-01       0.09375
    27)    -2.50000000E-01  3.75000000E-01  1.25000000E-01       0.04688
    28)    -3.75000000E-01  5.00000000E-01  1.25000000E-01       0.02344
    29)    -2.50000000E-01  5.00000000E-01  2.50000000E-01       0.01172

 Together with 48 symmetry operations and time-reversal symmetry 
 yields   512 points in the full Brillouin Zone.


 setmesh: FFT mesh size selected  =    36x   36x   36
