
.Version 9.9.2 of ABINIT 
.(MPI version, prepared for a x86_64_linux_gnu11.2 computer) 

.Copyright (C) 1998-2022 ABINIT group . 
 ABINIT comes with ABSOLUTELY NO WARRANTY.
 It is free software, and you are welcome to redistribute it
 under certain conditions (GNU General Public License,
 see ~abinit/COPYING or http://www.gnu.org/copyleft/gpl.txt).

 ABINIT is a project of the Universite Catholique de Louvain,
 Corning Inc. and other collaborators, see ~abinit/doc/developers/contributors.txt .
 Please read https://docs.abinit.org/theory/acknowledgments for suggested
 acknowledgments of the ABINIT effort.
 For more information, see https://www.abinit.org .

.Starting date : Thu 16 Feb 2023.
- ( at 22h20 )
  
- input  file    -> run.abi
- output file    -> run.abo
- root for input  files -> ../indata_ac
- root for output files -> outdata_ac


 DATASET    1 : space group Fd -3 m (#227); Bravais cF (face-center cubic)
================================================================================
 Values of the parameters that define the memory need for DATASET  1.
     intxc =       0    ionmov =       0      iscf =       7    lmnmax =       6
     lnmax =       6     mgfft =      30  mpssoang =       3    mqgrid =    3001
     natom =       2  nloc_mem =       1    nspden =       1   nspinor =       1
    nsppol =       1      nsym =      48    n1xccc =    2501    ntypat =       1
    occopt =       1   xclevel =       2
-    mband =         480        mffmem =           1         mkmem =           1
       mpw =         995          nfft =       27000          nkpt =          29
================================================================================
P This job should need less than                      23.995 Mbytes of memory.
  Rough estimation (10% accuracy) of disk space for files :
_ WF disk file :    211.342 Mbytes ; DEN or POT disk file :      0.208 Mbytes.
================================================================================


 DATASET    2 : space group Fd -3 m (#227); Bravais cF (face-center cubic)
================================================================================
 Values of the parameters that define the memory need for DATASET  2.
     intxc =       0    ionmov =       0      iscf =       7    lmnmax =       6
     lnmax =       6     mgfft =      30  mpssoang =       3    mqgrid =    3001
     natom =       2  nloc_mem =       1    nspden =       1   nspinor =       1
    nsppol =       1      nsym =      48    n1xccc =    2501    ntypat =       1
    occopt =       1   xclevel =       2
-    mband =         480        mffmem =           1         mkmem =           1
       mpw =         995          nfft =       27000          nkpt =          29
================================================================================
P This job should need less than                      23.995 Mbytes of memory.
  Rough estimation (10% accuracy) of disk space for files :
_ WF disk file :    211.342 Mbytes ; DEN or POT disk file :      0.208 Mbytes.
================================================================================

--------------------------------------------------------------------------------
------------- Echo of variables that govern the present computation ------------
--------------------------------------------------------------------------------
-
- outvars: echo of selected default values                                      
-   iomode0 =  0 , fftalg0 =312 , wfoptalg0 =  0
-
- outvars: echo of global parameters not present in the input file              
-  max_nthreads =    0
-
 -outvars: echo values of preprocessed input variables --------
            acell      1.0260000000E+01  1.0260000000E+01  1.0260000000E+01 Bohr
              amu      2.80855000E+01
             bdgw           1       5       1       5
           diemac      1.20000000E+01
             ecut      1.80000000E+01 Hartree
          ecuteps      1.20000000E+01 Hartree
         ecutsigx      3.60000000E+01 Hartree
          ecutwfn      1.80000000E+01 Hartree
-          fftalg         312
           getscr1          0
           getscr2         -1
        gwcalctyp           1
           istwfk        1    0    0    0    1    0    0    0    0    0
                         0    0    0    0    0    0    0    0    0    0
                         1    0    0    0    0    0    0    0    0
              ixc          11
           jdtset        1    2
              kpt      0.00000000E+00  0.00000000E+00  0.00000000E+00
                       1.25000000E-01  0.00000000E+00  0.00000000E+00
                       2.50000000E-01  0.00000000E+00  0.00000000E+00
                       3.75000000E-01  0.00000000E+00  0.00000000E+00
                       5.00000000E-01  0.00000000E+00  0.00000000E+00
                       1.25000000E-01  1.25000000E-01  0.00000000E+00
                       2.50000000E-01  1.25000000E-01  0.00000000E+00
                       3.75000000E-01  1.25000000E-01  0.00000000E+00
                       5.00000000E-01  1.25000000E-01  0.00000000E+00
                      -3.75000000E-01  1.25000000E-01  0.00000000E+00
                      -2.50000000E-01  1.25000000E-01  0.00000000E+00
                      -1.25000000E-01  1.25000000E-01  0.00000000E+00
                       2.50000000E-01  2.50000000E-01  0.00000000E+00
                       3.75000000E-01  2.50000000E-01  0.00000000E+00
                       5.00000000E-01  2.50000000E-01  0.00000000E+00
                      -3.75000000E-01  2.50000000E-01  0.00000000E+00
                      -2.50000000E-01  2.50000000E-01  0.00000000E+00
                       3.75000000E-01  3.75000000E-01  0.00000000E+00
                       5.00000000E-01  3.75000000E-01  0.00000000E+00
                      -3.75000000E-01  3.75000000E-01  0.00000000E+00
                       5.00000000E-01  5.00000000E-01  0.00000000E+00
                       3.75000000E-01  2.50000000E-01  1.25000000E-01
                       5.00000000E-01  2.50000000E-01  1.25000000E-01
                      -3.75000000E-01  2.50000000E-01  1.25000000E-01
                       5.00000000E-01  3.75000000E-01  1.25000000E-01
                      -3.75000000E-01  3.75000000E-01  1.25000000E-01
                      -2.50000000E-01  3.75000000E-01  1.25000000E-01
                      -3.75000000E-01  5.00000000E-01  1.25000000E-01
                      -2.50000000E-01  5.00000000E-01  2.50000000E-01
            kptgw      0.00000000E+00  0.00000000E+00  0.00000000E+00
                       5.00000000E-01  5.00000000E-01  0.00000000E+00
         kptrlatt        8    0    0      0    8    0      0    0    8
          kptrlen      5.80393246E+01
P           mkmem           1
            natom           2
            nband         480
           ndtset           2
          nfreqim          20
            ngfft          30      30      30
             nkpt          29
           nkptgw           2
         nomegasi          16
           npweps         531
          npwsigx        2733
           npwwfn         941
            nstep          50
             nsym          48
           ntypat           1
              occ      2.000000  2.000000  2.000000  2.000000  0.000000  0.000000
                       0.000000  0.000000  0.000000  0.000000  0.000000  0.000000
                       0.000000  0.000000  0.000000  0.000000  0.000000  0.000000
                       0.000000  0.000000  0.000000  0.000000  0.000000  0.000000
                       0.000000  0.000000  0.000000  0.000000  0.000000  0.000000
                       0.000000  0.000000  0.000000  0.000000  0.000000  0.000000
                       0.000000  0.000000  0.000000  0.000000  0.000000  0.000000
                       0.000000  0.000000  0.000000  0.000000  0.000000  0.000000
                       0.000000  0.000000  0.000000  0.000000  0.000000  0.000000
                       0.000000  0.000000  0.000000  0.000000  0.000000  0.000000
                       0.000000  0.000000  0.000000  0.000000  0.000000  0.000000
                       0.000000  0.000000  0.000000  0.000000  0.000000  0.000000
                       0.000000  0.000000  0.000000  0.000000  0.000000  0.000000
                       0.000000  0.000000  0.000000  0.000000  0.000000  0.000000
                       0.000000  0.000000  0.000000  0.000000  0.000000  0.000000
                       0.000000  0.000000  0.000000  0.000000  0.000000  0.000000
                       0.000000  0.000000  0.000000  0.000000  0.000000  0.000000
                       0.000000  0.000000  0.000000  0.000000  0.000000  0.000000
                       0.000000  0.000000  0.000000  0.000000  0.000000  0.000000
                       0.000000  0.000000  0.000000  0.000000  0.000000  0.000000
                       0.000000  0.000000  0.000000  0.000000  0.000000  0.000000
                       0.000000  0.000000  0.000000  0.000000  0.000000  0.000000
                       0.000000  0.000000  0.000000  0.000000  0.000000  0.000000
                       0.000000  0.000000  0.000000  0.000000  0.000000  0.000000
                       0.000000  0.000000  0.000000  0.000000  0.000000  0.000000
                       0.000000  0.000000  0.000000  0.000000  0.000000  0.000000
                       0.000000  0.000000  0.000000  0.000000  0.000000  0.000000
                       0.000000  0.000000  0.000000  0.000000  0.000000  0.000000
                       0.000000  0.000000  0.000000  0.000000  0.000000  0.000000
                       0.000000  0.000000  0.000000  0.000000  0.000000  0.000000
                       0.000000  0.000000  0.000000  0.000000  0.000000  0.000000
                       0.000000  0.000000  0.000000  0.000000  0.000000  0.000000
                       0.000000  0.000000  0.000000  0.000000  0.000000  0.000000
                       0.000000  0.000000  0.000000  0.000000  0.000000  0.000000
                       0.000000  0.000000  0.000000  0.000000  0.000000  0.000000
                       0.000000  0.000000  0.000000  0.000000  0.000000  0.000000
                       0.000000  0.000000  0.000000  0.000000  0.000000  0.000000
                       0.000000  0.000000  0.000000  0.000000  0.000000  0.000000
                       0.000000  0.000000  0.000000  0.000000  0.000000  0.000000
                       0.000000  0.000000  0.000000  0.000000  0.000000  0.000000
                       0.000000  0.000000  0.000000  0.000000  0.000000  0.000000
                       0.000000  0.000000  0.000000  0.000000  0.000000  0.000000
                       0.000000  0.000000  0.000000  0.000000  0.000000  0.000000
                       0.000000  0.000000  0.000000  0.000000  0.000000  0.000000
                       0.000000  0.000000  0.000000  0.000000  0.000000  0.000000
                       0.000000  0.000000  0.000000  0.000000  0.000000  0.000000
                       0.000000  0.000000  0.000000  0.000000  0.000000  0.000000
                       0.000000  0.000000  0.000000  0.000000  0.000000  0.000000
                       0.000000  0.000000  0.000000  0.000000  0.000000  0.000000
                       0.000000  0.000000  0.000000  0.000000  0.000000  0.000000
                       0.000000  0.000000  0.000000  0.000000  0.000000  0.000000
                       0.000000  0.000000  0.000000  0.000000  0.000000  0.000000
                       0.000000  0.000000  0.000000  0.000000  0.000000  0.000000
                       0.000000  0.000000  0.000000  0.000000  0.000000  0.000000
                       0.000000  0.000000  0.000000  0.000000  0.000000  0.000000
                       0.000000  0.000000  0.000000  0.000000  0.000000  0.000000
                       0.000000  0.000000  0.000000  0.000000  0.000000  0.000000
                       0.000000  0.000000  0.000000  0.000000  0.000000  0.000000
                       0.000000  0.000000  0.000000  0.000000  0.000000  0.000000
                       0.000000  0.000000  0.000000  0.000000  0.000000  0.000000
                       0.000000  0.000000  0.000000  0.000000  0.000000  0.000000
                       0.000000  0.000000  0.000000  0.000000  0.000000  0.000000
                       0.000000  0.000000  0.000000  0.000000  0.000000  0.000000
                       0.000000  0.000000  0.000000  0.000000  0.000000  0.000000
                       0.000000  0.000000  0.000000  0.000000  0.000000  0.000000
                       0.000000  0.000000  0.000000  0.000000  0.000000  0.000000
                       0.000000  0.000000  0.000000  0.000000  0.000000  0.000000
                       0.000000  0.000000  0.000000  0.000000  0.000000  0.000000
                       0.000000  0.000000  0.000000  0.000000  0.000000  0.000000
                       0.000000  0.000000  0.000000  0.000000  0.000000  0.000000
                       0.000000  0.000000  0.000000  0.000000  0.000000  0.000000
                       0.000000  0.000000  0.000000  0.000000  0.000000  0.000000
                       0.000000  0.000000  0.000000  0.000000  0.000000  0.000000
                       0.000000  0.000000  0.000000  0.000000  0.000000  0.000000
                       0.000000  0.000000  0.000000  0.000000  0.000000  0.000000
                       0.000000  0.000000  0.000000  0.000000  0.000000  0.000000
                       0.000000  0.000000  0.000000  0.000000  0.000000  0.000000
                       0.000000  0.000000  0.000000  0.000000  0.000000  0.000000
                       0.000000  0.000000  0.000000  0.000000  0.000000  0.000000
                       0.000000  0.000000  0.000000  0.000000  0.000000  0.000000
       omegasimax      5.87989206E-01 Hartree
        optdriver1          3
        optdriver2          4
            rprim      0.0000000000E+00  5.0000000000E-01  5.0000000000E-01
                       5.0000000000E-01  0.0000000000E+00  5.0000000000E-01
                       5.0000000000E-01  5.0000000000E-01  0.0000000000E+00
          spgroup         227
           symrel      1  0  0   0  1  0   0  0  1      -1  0  0   0 -1  0   0  0 -1
                       0 -1  1   0 -1  0   1 -1  0       0  1 -1   0  1  0  -1  1  0
                      -1  0  0  -1  0  1  -1  1  0       1  0  0   1  0 -1   1 -1  0
                       0  1 -1   1  0 -1   0  0 -1       0 -1  1  -1  0  1   0  0  1
                      -1  0  0  -1  1  0  -1  0  1       1  0  0   1 -1  0   1  0 -1
                       0 -1  1   1 -1  0   0 -1  0       0  1 -1  -1  1  0   0  1  0
                       1  0  0   0  0  1   0  1  0      -1  0  0   0  0 -1   0 -1  0
                       0  1 -1   0  0 -1   1  0 -1       0 -1  1   0  0  1  -1  0  1
                      -1  0  1  -1  1  0  -1  0  0       1  0 -1   1 -1  0   1  0  0
                       0 -1  0   1 -1  0   0 -1  1       0  1  0  -1  1  0   0  1 -1
                       1  0 -1   0  0 -1   0  1 -1      -1  0  1   0  0  1   0 -1  1
                       0  1  0   0  0  1   1  0  0       0 -1  0   0  0 -1  -1  0  0
                       1  0 -1   0  1 -1   0  0 -1      -1  0  1   0 -1  1   0  0  1
                       0 -1  0   0 -1  1   1 -1  0       0  1  0   0  1 -1  -1  1  0
                      -1  0  1  -1  0  0  -1  1  0       1  0 -1   1  0  0   1 -1  0
                       0  1  0   1  0  0   0  0  1       0 -1  0  -1  0  0   0  0 -1
                       0  0 -1   0  1 -1   1  0 -1       0  0  1   0 -1  1  -1  0  1
                       1 -1  0   0 -1  1   0 -1  0      -1  1  0   0  1 -1   0  1  0
                       0  0  1   1  0  0   0  1  0       0  0 -1  -1  0  0   0 -1  0
                      -1  1  0  -1  0  0  -1  0  1       1 -1  0   1  0  0   1  0 -1
                       0  0  1   0  1  0   1  0  0       0  0 -1   0 -1  0  -1  0  0
                       1 -1  0   0 -1  0   0 -1  1      -1  1  0   0  1  0   0  1 -1
                       0  0 -1   1  0 -1   0  1 -1       0  0  1  -1  0  1   0 -1  1
                      -1  1  0  -1  0  1  -1  0  0       1 -1  0   1  0 -1   1  0  0
           timopt          -1
            tnons      0.0000000  0.0000000  0.0000000     0.2500000  0.2500000  0.2500000
                       0.0000000  0.0000000  0.0000000     0.2500000  0.2500000  0.2500000
                       0.0000000  0.0000000  0.0000000     0.2500000  0.2500000  0.2500000
                       0.0000000  0.0000000  0.0000000     0.2500000  0.2500000  0.2500000
                       0.0000000  0.0000000  0.0000000     0.2500000  0.2500000  0.2500000
                       0.0000000  0.0000000  0.0000000     0.2500000  0.2500000  0.2500000
                       0.0000000  0.0000000  0.0000000     0.2500000  0.2500000  0.2500000
                       0.0000000  0.0000000  0.0000000     0.2500000  0.2500000  0.2500000
                       0.0000000  0.0000000  0.0000000     0.2500000  0.2500000  0.2500000
                       0.0000000  0.0000000  0.0000000     0.2500000  0.2500000  0.2500000
                       0.0000000  0.0000000  0.0000000     0.2500000  0.2500000  0.2500000
                       0.0000000  0.0000000  0.0000000     0.2500000  0.2500000  0.2500000
                       0.0000000  0.0000000  0.0000000     0.2500000  0.2500000  0.2500000
                       0.0000000  0.0000000  0.0000000     0.2500000  0.2500000  0.2500000
                       0.0000000  0.0000000  0.0000000     0.2500000  0.2500000  0.2500000
                       0.0000000  0.0000000  0.0000000     0.2500000  0.2500000  0.2500000
                       0.0000000  0.0000000  0.0000000     0.2500000  0.2500000  0.2500000
                       0.0000000  0.0000000  0.0000000     0.2500000  0.2500000  0.2500000
                       0.0000000  0.0000000  0.0000000     0.2500000  0.2500000  0.2500000
                       0.0000000  0.0000000  0.0000000     0.2500000  0.2500000  0.2500000
                       0.0000000  0.0000000  0.0000000     0.2500000  0.2500000  0.2500000
                       0.0000000  0.0000000  0.0000000     0.2500000  0.2500000  0.2500000
                       0.0000000  0.0000000  0.0000000     0.2500000  0.2500000  0.2500000
                       0.0000000  0.0000000  0.0000000     0.2500000  0.2500000  0.2500000
            typat      1  1
              wtk        0.00195    0.01563    0.01563    0.01563    0.00781    0.01172
                         0.04688    0.04688    0.04688    0.04688    0.04688    0.02344
                         0.01172    0.04688    0.04688    0.04688    0.02344    0.01172
                         0.04688    0.02344    0.00586    0.04688    0.09375    0.04688
                         0.04688    0.09375    0.04688    0.02344    0.01172
           xangst      0.0000000000E+00  0.0000000000E+00  0.0000000000E+00
                       1.3573395400E+00  1.3573395400E+00  1.3573395400E+00
            xcart      0.0000000000E+00  0.0000000000E+00  0.0000000000E+00
                       2.5650000000E+00  2.5650000000E+00  2.5650000000E+00
             xred      0.0000000000E+00  0.0000000000E+00  0.0000000000E+00
                       2.5000000000E-01  2.5000000000E-01  2.5000000000E-01
            znucl       14.00000

================================================================================

 chkinp: Checking input parameters for consistency, jdtset=   1.

 chkinp: Checking input parameters for consistency, jdtset=   2.

================================================================================
== DATASET  1 ==================================================================
-   mpi_nproc: 256, omp_nthreads: -1 (-1 if OMP is not activated)


--- !DatasetInfo
iteration_state: {dtset: 1, }
dimensions: {natom: 2, nkpt: 29, mband: 480, nsppol: 1, nspinor: 1, nspden: 1, mpw: 995, }
cutoff_energies: {ecut:  18.0, pawecutdg:  -1.0, }
electrons: {nelect:   8.00000000E+00, charge:   0.00000000E+00, occopt:   1.00000000E+00, tsmear:   1.00000000E-02, }
meta: {optdriver: 3, gwcalctyp: 1, }
...

 mkfilename: getwfk from: ../outdata_gs_DS2_WFK

 Exchange-correlation functional for the present dataset will be:
  GGA: Perdew-Burke-Ernzerhof functional - ixc=11
 Citation for XC functional:
  J.P.Perdew, K.Burke, M.Ernzerhof, PRL 77, 3865 (1996)

 SCREENING: Calculation of the susceptibility and dielectric matrices 

 Based on a program developped by R.W. Godby, V. Olevano, G. Onida, and L. Reining.
 Incorporated in ABINIT by V. Olevano, G.-M. Rignanese, and M. Torrent.
.Using single precision arithmetic ; gwpc =  4

 Real(R)+Recip(G) space primitive vectors, cartesian coordinates (Bohr,Bohr^-1):
 R(1)=  0.0000000  5.1300000  5.1300000  G(1)= -0.0974659  0.0974659  0.0974659
 R(2)=  5.1300000  0.0000000  5.1300000  G(2)=  0.0974659 -0.0974659  0.0974659
 R(3)=  5.1300000  5.1300000  0.0000000  G(3)=  0.0974659  0.0974659 -0.0974659
 Unit cell volume ucvol=  2.7001139E+02 bohr^3
 Angles (23,13,12)=  6.00000000E+01  6.00000000E+01  6.00000000E+01 degrees

--- Pseudopotential description ------------------------------------------------
- pspini: atom type   1  psp file is ../Si.psp8
- pspatm: opening atomic psp file    ../Si.psp8
- Si    ONCVPSP-3.2.3.1  r_core=   1.60303   1.72197   1.91712
- 14.00000   4.00000    170510                znucl, zion, pspdat
    8   11    2    4       600   0.00000      pspcod,pspxc,lmax,lloc,mmax,r2well
    5.99000000000000    4.00000000000000    0.00000000000000   rchrg,fchrg,qchrg
     nproj     2     2     2
     extension_switch     1
  pspatm : epsatm=    9.34321699
         --- l  ekb(1:nproj) -->
             0    5.168965    0.829883
             1    2.571282    0.578307
             2   -2.427311   -0.488097
 pspatm: atomic psp has been read  and splines computed

   1.49491472E+02                                ecore*ucvol(ha*bohr**3)
--------------------------------------------------------------------------------

 ==== K-mesh for the wavefunctions ====
 Number of points in the irreducible wedge :    29
 Reduced coordinates and weights : 

     1)     0.00000000E+00  0.00000000E+00  0.00000000E+00       0.00195
     2)     1.25000000E-01  0.00000000E+00  0.00000000E+00       0.01563
     3)     2.50000000E-01  0.00000000E+00  0.00000000E+00       0.01563
     4)     3.75000000E-01  0.00000000E+00  0.00000000E+00       0.01563
     5)     5.00000000E-01  0.00000000E+00  0.00000000E+00       0.00781
     6)     1.25000000E-01  1.25000000E-01  0.00000000E+00       0.01172
     7)     2.50000000E-01  1.25000000E-01  0.00000000E+00       0.04688
     8)     3.75000000E-01  1.25000000E-01  0.00000000E+00       0.04688
     9)     5.00000000E-01  1.25000000E-01  0.00000000E+00       0.04688
    10)    -3.75000000E-01  1.25000000E-01  0.00000000E+00       0.04688
    11)    -2.50000000E-01  1.25000000E-01  0.00000000E+00       0.04688
    12)    -1.25000000E-01  1.25000000E-01  0.00000000E+00       0.02344
    13)     2.50000000E-01  2.50000000E-01  0.00000000E+00       0.01172
    14)     3.75000000E-01  2.50000000E-01  0.00000000E+00       0.04688
    15)     5.00000000E-01  2.50000000E-01  0.00000000E+00       0.04688
    16)    -3.75000000E-01  2.50000000E-01  0.00000000E+00       0.04688
    17)    -2.50000000E-01  2.50000000E-01  0.00000000E+00       0.02344
    18)     3.75000000E-01  3.75000000E-01  0.00000000E+00       0.01172
    19)     5.00000000E-01  3.75000000E-01  0.00000000E+00       0.04688
    20)    -3.75000000E-01  3.75000000E-01  0.00000000E+00       0.02344
    21)     5.00000000E-01  5.00000000E-01  0.00000000E+00       0.00586
    22)     3.75000000E-01  2.50000000E-01  1.25000000E-01       0.04688
    23)     5.00000000E-01  2.50000000E-01  1.25000000E-01       0.09375
    24)    -3.75000000E-01  2.50000000E-01  1.25000000E-01       0.04688
    25)     5.00000000E-01  3.75000000E-01  1.25000000E-01       0.04688
    26)    -3.75000000E-01  3.75000000E-01  1.25000000E-01       0.09375
    27)    -2.50000000E-01  3.75000000E-01  1.25000000E-01       0.04688
    28)    -3.75000000E-01  5.00000000E-01  1.25000000E-01       0.02344
    29)    -2.50000000E-01  5.00000000E-01  2.50000000E-01       0.01172

 Together with 48 symmetry operations and time-reversal symmetry 
 yields   512 points in the full Brillouin Zone.


 ==== Q-mesh for the screening function ====
 Number of points in the irreducible wedge :    29
 Reduced coordinates and weights : 

     1)     0.00000000E+00  0.00000000E+00  0.00000000E+00       0.00195
     2)     1.25000000E-01  0.00000000E+00  0.00000000E+00       0.01563
     3)     2.50000000E-01  0.00000000E+00  0.00000000E+00       0.01563
     4)     3.75000000E-01  0.00000000E+00  0.00000000E+00       0.01563
     5)     5.00000000E-01  0.00000000E+00  0.00000000E+00       0.00781
     6)     1.25000000E-01  1.25000000E-01  0.00000000E+00       0.01172
     7)     2.50000000E-01  1.25000000E-01  0.00000000E+00       0.04688
     8)     3.75000000E-01  1.25000000E-01  0.00000000E+00       0.04688
     9)     5.00000000E-01  1.25000000E-01  0.00000000E+00       0.04688
    10)    -3.75000000E-01  1.25000000E-01  0.00000000E+00       0.04688
    11)    -2.50000000E-01  1.25000000E-01  0.00000000E+00       0.04688
    12)    -1.25000000E-01  1.25000000E-01  0.00000000E+00       0.02344
    13)     2.50000000E-01  2.50000000E-01  0.00000000E+00       0.01172
    14)     3.75000000E-01  2.50000000E-01  0.00000000E+00       0.04688
    15)     5.00000000E-01  2.50000000E-01  0.00000000E+00       0.04688
    16)    -3.75000000E-01  2.50000000E-01  0.00000000E+00       0.04688
    17)    -2.50000000E-01  2.50000000E-01  0.00000000E+00       0.02344
    18)     3.75000000E-01  3.75000000E-01  0.00000000E+00       0.01172
    19)     5.00000000E-01  3.75000000E-01  0.00000000E+00       0.04688
    20)    -3.75000000E-01  3.75000000E-01  0.00000000E+00       0.02344
    21)     5.00000000E-01  5.00000000E-01  0.00000000E+00       0.00586
    22)     3.75000000E-01  2.50000000E-01  1.25000000E-01       0.04688
    23)     5.00000000E-01  2.50000000E-01  1.25000000E-01       0.09375
    24)    -3.75000000E-01  2.50000000E-01  1.25000000E-01       0.04688
    25)     5.00000000E-01  3.75000000E-01  1.25000000E-01       0.04688
    26)    -3.75000000E-01  3.75000000E-01  1.25000000E-01       0.09375
    27)    -2.50000000E-01  3.75000000E-01  1.25000000E-01       0.04688
    28)    -3.75000000E-01  5.00000000E-01  1.25000000E-01       0.02344
    29)    -2.50000000E-01  5.00000000E-01  2.50000000E-01       0.01172

 Together with 48 symmetry operations and time-reversal symmetry 
 yields   512 points in the full Brillouin Zone.


 setmesh: FFT mesh size selected  =    32x   32x   32
          total number of points  =        32768


- screening: taking advantage of time-reversal symmetry 
- Maximum band index for partially occupied states nbvw = 4
- Remaining bands to be divided among processors   nbcw = 476
- Number of bands treated by each node ~1

 Number of electrons calculated from density =    8.0000; Expected =    8.0000
 average of density, n =  0.029628
 r_s =    2.0048
 omega_plasma =   16.6039 [eV]


 calculating chi0 at frequencies [eV] :
  1    0.000000E+00    0.000000E+00
  2    0.000000E+00    7.892974E+03
  3    0.000000E+00    1.483354E+03
  4    0.000000E+00    5.928811E+02
  5    0.000000E+00    3.110640E+02
  6    0.000000E+00    1.873318E+02
  7    0.000000E+00    1.223238E+02
  8    0.000000E+00    8.405236E+01
  9    0.000000E+00    5.968515E+01
 10    0.000000E+00    4.326488E+01
 11    0.000000E+00    3.172130E+01
 12    0.000000E+00    2.334266E+01
 13    0.000000E+00    1.711456E+01
 14    0.000000E+00    1.240609E+01
 15    0.000000E+00    8.809502E+00
 16    0.000000E+00    6.053275E+00
 17    0.000000E+00    3.952662E+00
 18    0.000000E+00    2.380409E+00
 19    0.000000E+00    1.248917E+00
 20    0.000000E+00    4.991791E-01
 21    0.000000E+00    9.381247E-02


--------------------------------------------------------------------------------
  q-point number  1        q = ( 0.000000, 0.000000, 0.000000) [r.l.u.]
--------------------------------------------------------------------------------
  chi0(G,G') at the    1 th omega   0.0000   0.0000 [eV]
       1       2       3       4       5       6       7       8       9
    1  -0.000   0.000  -0.000  -0.000   0.000   0.000  -0.000  -0.000   0.000
        0.000   0.000   0.000  -0.000  -0.000   0.000   0.000  -0.000  -0.000

    2   0.000 -18.939  -0.000  -0.094   0.000  -0.094  -0.000  -0.094   0.000
       -0.000   0.000  -4.558  -0.000  -0.263   0.000  -0.263  -0.000  -0.263

  chi0(G,G') at the    2 th omega   0.00007892.9739 [eV]
       1       2       3       4       5       6       7       8       9
    1  -0.000   0.000  -0.000  -0.000   0.000   0.000  -0.000  -0.000   0.000
       -0.000   0.000   0.000  -0.000  -0.000   0.000   0.000  -0.000  -0.000

    2   0.000  -0.000   0.000  -0.000  -0.000  -0.000  -0.000  -0.000  -0.000
       -0.000   0.000  -0.000  -0.000  -0.000   0.000  -0.000   0.000  -0.000

  chi0(G,G') at the    3 th omega   0.00001483.3542 [eV]
       1       2       3       4       5       6       7       8       9
    1  -0.000   0.000  -0.000  -0.000   0.000   0.000  -0.000  -0.000   0.000
       -0.000   0.000   0.000  -0.000  -0.000   0.000   0.000  -0.000  -0.000

    2   0.000  -0.003   0.000  -0.000  -0.000  -0.000  -0.000  -0.000  -0.000
       -0.000   0.000  -0.000  -0.000  -0.000   0.000  -0.000   0.000  -0.000

  chi0(G,G') at the    4 th omega   0.0000 592.8811 [eV]
       1       2       3       4       5       6       7       8       9
    1  -0.000   0.000  -0.000  -0.000   0.000   0.000  -0.000  -0.000   0.000
       -0.000   0.000   0.000  -0.000  -0.000   0.000   0.000  -0.000  -0.000

    2   0.000  -0.018   0.000  -0.000  -0.000  -0.000  -0.000  -0.000  -0.000
       -0.000   0.000  -0.001  -0.000  -0.000   0.000  -0.000   0.000  -0.000

  chi0(G,G') at the    5 th omega   0.0000 311.0640 [eV]
       1       2       3       4       5       6       7       8       9
    1  -0.000   0.000  -0.000  -0.000   0.000   0.000  -0.000  -0.000   0.000
        0.000   0.000   0.000  -0.000  -0.000   0.000   0.000  -0.000  -0.000

    2   0.000  -0.065   0.000  -0.002  -0.000  -0.002  -0.000  -0.002  -0.000
       -0.000   0.000  -0.003  -0.000  -0.000   0.000  -0.000   0.000  -0.000

  chi0(G,G') at the    6 th omega   0.0000 187.3318 [eV]
       1       2       3       4       5       6       7       8       9
    1  -0.000   0.000  -0.000  -0.000   0.000   0.000  -0.000  -0.000   0.000
       -0.000   0.000   0.000  -0.000  -0.000   0.000   0.000  -0.000  -0.000

    2   0.000  -0.176   0.000  -0.004  -0.000  -0.004  -0.000  -0.004  -0.000
       -0.000   0.000  -0.008  -0.000  -0.000   0.000  -0.000   0.000  -0.000

  chi0(G,G') at the    7 th omega   0.0000 122.3238 [eV]
       1       2       3       4       5       6       7       8       9
    1  -0.000   0.000  -0.000  -0.000   0.000   0.000  -0.000  -0.000   0.000
       -0.000   0.000   0.000  -0.000  -0.000   0.000   0.000  -0.000  -0.000

    2   0.000  -0.397   0.000  -0.010  -0.000  -0.010  -0.000  -0.010  -0.000
       -0.000   0.000  -0.019  -0.000  -0.001   0.000  -0.001   0.000  -0.001

  chi0(G,G') at the    8 th omega   0.0000  84.0524 [eV]
       1       2       3       4       5       6       7       8       9
    1  -0.000   0.000  -0.000  -0.000   0.000   0.000  -0.000  -0.000   0.000
        0.000   0.000   0.000  -0.000  -0.000   0.000   0.000  -0.000  -0.000

    2   0.000  -0.794   0.000  -0.020  -0.000  -0.020  -0.000  -0.020  -0.000
       -0.000   0.000  -0.042  -0.000  -0.003   0.000  -0.003   0.000  -0.003

  chi0(G,G') at the    9 th omega   0.0000  59.6851 [eV]
       1       2       3       4       5       6       7       8       9
    1  -0.000   0.000  -0.000  -0.000   0.000   0.000  -0.000  -0.000   0.000
        0.000   0.000   0.000  -0.000  -0.000   0.000   0.000  -0.000  -0.000

    2   0.000  -1.442   0.000  -0.033  -0.000  -0.033  -0.000  -0.033  -0.000
       -0.000   0.000  -0.088  -0.000  -0.009   0.000  -0.009   0.000  -0.009

  chi0(G,G') at the   10 th omega   0.0000  43.2649 [eV]
       1       2       3       4       5       6       7       8       9
    1  -0.000   0.000  -0.000  -0.000   0.000   0.000  -0.000  -0.000   0.000
        0.000   0.000   0.000  -0.000  -0.000   0.000   0.000  -0.000  -0.000

    2   0.000  -2.417   0.000  -0.049  -0.000  -0.049  -0.000  -0.049  -0.000
       -0.000   0.000  -0.174  -0.000  -0.023   0.000  -0.023   0.000  -0.023

  chi0(G,G') at the   11 th omega   0.0000  31.7213 [eV]
       1       2       3       4       5       6       7       8       9
    1  -0.000   0.000  -0.000  -0.000   0.000   0.000  -0.000  -0.000   0.000
       -0.000   0.000   0.000  -0.000  -0.000   0.000   0.000  -0.000  -0.000

    2   0.000  -3.778   0.000  -0.059   0.000  -0.059  -0.000  -0.059  -0.000
       -0.000   0.000  -0.327  -0.000  -0.046   0.000  -0.046   0.000  -0.046

  chi0(G,G') at the   12 th omega   0.0000  23.3427 [eV]
       1       2       3       4       5       6       7       8       9
    1  -0.000   0.000  -0.000  -0.000   0.000   0.000  -0.000  -0.000   0.000
        0.000   0.000   0.000  -0.000  -0.000   0.000   0.000  -0.000  -0.000

    2   0.000  -5.534   0.000  -0.057   0.000  -0.057  -0.000  -0.057  -0.000
       -0.000   0.000  -0.579  -0.000  -0.081   0.000  -0.081   0.000  -0.081

  chi0(G,G') at the   13 th omega   0.0000  17.1146 [eV]
       1       2       3       4       5       6       7       8       9
    1  -0.000   0.000  -0.000  -0.000   0.000   0.000  -0.000  -0.000   0.000
       -0.000   0.000   0.000  -0.000  -0.000   0.000   0.000  -0.000  -0.000

    2   0.000  -7.636  -0.000  -0.039   0.000  -0.039  -0.000  -0.039  -0.000
       -0.000   0.000  -0.959  -0.000  -0.122   0.000  -0.122   0.000  -0.122

  chi0(G,G') at the   14 th omega   0.0000  12.4061 [eV]
       1       2       3       4       5       6       7       8       9
    1  -0.000   0.000  -0.000  -0.000   0.000   0.000  -0.000  -0.000   0.000
        0.000   0.000   0.000  -0.000  -0.000   0.000   0.000  -0.000  -0.000

    2   0.000  -9.969  -0.000  -0.010   0.000  -0.010  -0.000  -0.010  -0.000
       -0.000   0.000  -1.478  -0.000  -0.158   0.000  -0.158   0.000  -0.158

  chi0(G,G') at the   15 th omega   0.0000   8.8095 [eV]
       1       2       3       4       5       6       7       8       9
    1  -0.000   0.000  -0.000  -0.000   0.000   0.000  -0.000  -0.000   0.000
       -0.000   0.000   0.000  -0.000  -0.000   0.000   0.000  -0.000  -0.000

    2   0.000 -12.361  -0.000   0.013   0.000   0.013  -0.000   0.013  -0.000
       -0.000   0.000  -2.117  -0.000  -0.184   0.000  -0.184   0.000  -0.184

 No. of calculated frequencies >  15, stop printing
 For q-point:  0.000010 0.000020 0.000030
  dielectric constant =  13.2041
  dielectric constant without local fields =  14.6448

  Average fulfillment of the sum rule on Im[epsilon] for q-point    1 :     95.71  [%]
  Heads and wings of the symmetrical epsilon^-1(G,G') 

   Upper and lower wings at the    1 th omega   0.0000   0.0000 [eV]
       1       2       3       4       5       6       7       8       9
      0.076   0.006  -0.006  -0.017   0.017   0.017  -0.017  -0.006   0.006
     -0.000   0.006   0.006  -0.017  -0.017   0.017   0.017  -0.006  -0.006
       1       2       3       4       5       6       7       8       9
      0.076   0.006  -0.006  -0.017   0.017   0.017  -0.017  -0.006   0.006
     -0.000  -0.006  -0.006   0.017   0.017  -0.017  -0.017   0.006   0.006


   Upper and lower wings at the    2 th omega   0.00007892.9739 [eV]
       1       2       3       4       5       6       7       8       9
      1.000   0.000  -0.000  -0.000   0.000   0.000  -0.000  -0.000   0.000
     -0.000   0.000   0.000  -0.000  -0.000   0.000   0.000  -0.000  -0.000
       1       2       3       4       5       6       7       8       9
      1.000   0.000  -0.000  -0.000   0.000   0.000  -0.000  -0.000   0.000
     -0.000  -0.000  -0.000   0.000   0.000  -0.000  -0.000   0.000   0.000


   Upper and lower wings at the    3 th omega   0.00001483.3542 [eV]
       1       2       3       4       5       6       7       8       9
      1.000   0.000  -0.000  -0.000   0.000   0.000  -0.000  -0.000   0.000
     -0.000   0.000   0.000  -0.000  -0.000   0.000   0.000  -0.000  -0.000
       1       2       3       4       5       6       7       8       9
      1.000   0.000  -0.000  -0.000   0.000   0.000  -0.000  -0.000   0.000
     -0.000  -0.000  -0.000   0.000   0.000  -0.000  -0.000   0.000   0.000


   Upper and lower wings at the    4 th omega   0.0000 592.8811 [eV]
       1       2       3       4       5       6       7       8       9
      0.999   0.000  -0.000  -0.000   0.000   0.000  -0.000  -0.000   0.000
     -0.000   0.000   0.000  -0.000  -0.000   0.000   0.000  -0.000  -0.000
       1       2       3       4       5       6       7       8       9
      0.999   0.000  -0.000  -0.000   0.000   0.000  -0.000  -0.000   0.000
     -0.000  -0.000  -0.000   0.000   0.000  -0.000  -0.000   0.000   0.000


   Upper and lower wings at the    5 th omega   0.0000 311.0640 [eV]
       1       2       3       4       5       6       7       8       9
      0.997   0.000  -0.000  -0.000   0.000   0.000  -0.000  -0.000   0.000
     -0.000   0.000   0.000  -0.000  -0.000   0.000   0.000  -0.000  -0.000
       1       2       3       4       5       6       7       8       9
      0.997   0.000  -0.000  -0.000   0.000   0.000  -0.000  -0.000   0.000
     -0.000  -0.000  -0.000   0.000   0.000  -0.000  -0.000   0.000   0.000


   Upper and lower wings at the    6 th omega   0.0000 187.3318 [eV]
       1       2       3       4       5       6       7       8       9
      0.993   0.000  -0.000  -0.001   0.001   0.001  -0.001  -0.000   0.000
     -0.000   0.000   0.000  -0.001  -0.001   0.001   0.001  -0.000  -0.000
       1       2       3       4       5       6       7       8       9
      0.993   0.000  -0.000  -0.001   0.001   0.001  -0.001  -0.000   0.000
     -0.000  -0.000  -0.000   0.001   0.001  -0.001  -0.001   0.000   0.000


   Upper and lower wings at the    7 th omega   0.0000 122.3238 [eV]
       1       2       3       4       5       6       7       8       9
      0.983   0.001  -0.001  -0.002   0.002   0.002  -0.002  -0.001   0.001
      0.000   0.001   0.001  -0.002  -0.002   0.002   0.002  -0.001  -0.001
       1       2       3       4       5       6       7       8       9
      0.983   0.001  -0.001  -0.002   0.002   0.002  -0.002  -0.001   0.001
      0.000  -0.001  -0.001   0.002   0.002  -0.002  -0.002   0.001   0.001


   Upper and lower wings at the    8 th omega   0.0000  84.0524 [eV]
       1       2       3       4       5       6       7       8       9
      0.965   0.001  -0.001  -0.003   0.003   0.003  -0.003  -0.001   0.001
     -0.000   0.001   0.001  -0.003  -0.003   0.003   0.003  -0.001  -0.001
       1       2       3       4       5       6       7       8       9
      0.965   0.001  -0.001  -0.003   0.003   0.003  -0.003  -0.001   0.001
     -0.000  -0.001  -0.001   0.003   0.003  -0.003  -0.003   0.001   0.001


   Upper and lower wings at the    9 th omega   0.0000  59.6851 [eV]
       1       2       3       4       5       6       7       8       9
      0.934   0.002  -0.002  -0.006   0.006   0.006  -0.006  -0.002   0.002
      0.000   0.002   0.002  -0.006  -0.006   0.006   0.006  -0.002  -0.002
       1       2       3       4       5       6       7       8       9
      0.934   0.002  -0.002  -0.006   0.006   0.006  -0.006  -0.002   0.002
      0.000  -0.002  -0.002   0.006   0.006  -0.006  -0.006   0.002   0.002


   Upper and lower wings at the   10 th omega   0.0000  43.2649 [eV]
       1       2       3       4       5       6       7       8       9
      0.883   0.003  -0.003  -0.010   0.010   0.010  -0.010  -0.003   0.003
     -0.000   0.003   0.003  -0.010  -0.010   0.010   0.010  -0.003  -0.003
       1       2       3       4       5       6       7       8       9
      0.883   0.003  -0.003  -0.010   0.010   0.010  -0.010  -0.003   0.003
     -0.000  -0.003  -0.003   0.010   0.010  -0.010  -0.010   0.003   0.003


   Upper and lower wings at the   11 th omega   0.0000  31.7213 [eV]
       1       2       3       4       5       6       7       8       9
      0.808   0.005  -0.005  -0.015   0.015   0.015  -0.015  -0.005   0.005
     -0.000   0.005   0.005  -0.015  -0.015   0.015   0.015  -0.005  -0.005
       1       2       3       4       5       6       7       8       9
      0.808   0.005  -0.005  -0.015   0.015   0.015  -0.015  -0.005   0.005
     -0.000  -0.005  -0.005   0.015   0.015  -0.015  -0.015   0.005   0.005


   Upper and lower wings at the   12 th omega   0.0000  23.3427 [eV]
       1       2       3       4       5       6       7       8       9
      0.703   0.007  -0.007  -0.020   0.020   0.020  -0.020  -0.007   0.007
      0.000   0.007   0.007  -0.020  -0.020   0.020   0.020  -0.007  -0.007
       1       2       3       4       5       6       7       8       9
      0.703   0.007  -0.007  -0.020   0.020   0.020  -0.020  -0.007   0.007
      0.000  -0.007  -0.007   0.020   0.020  -0.020  -0.020   0.007   0.007


   Upper and lower wings at the   13 th omega   0.0000  17.1146 [eV]
       1       2       3       4       5       6       7       8       9
      0.575   0.008  -0.008  -0.025   0.025   0.025  -0.025  -0.008   0.008
     -0.000   0.008   0.008  -0.025  -0.025   0.025   0.025  -0.008  -0.008
       1       2       3       4       5       6       7       8       9
      0.575   0.008  -0.008  -0.025   0.025   0.025  -0.025  -0.008   0.008
     -0.000  -0.008  -0.008   0.025   0.025  -0.025  -0.025   0.008   0.008


   Upper and lower wings at the   14 th omega   0.0000  12.4061 [eV]
       1       2       3       4       5       6       7       8       9
      0.438   0.009  -0.009  -0.027   0.027   0.027  -0.027  -0.009   0.009
      0.000   0.009   0.009  -0.027  -0.027   0.027   0.027  -0.009  -0.009
       1       2       3       4       5       6       7       8       9
      0.438   0.009  -0.009  -0.027   0.027   0.027  -0.027  -0.009   0.009
      0.000  -0.009  -0.009   0.027   0.027  -0.027  -0.027   0.009   0.009


   Upper and lower wings at the   15 th omega   0.0000   8.8095 [eV]
       1       2       3       4       5       6       7       8       9
      0.311   0.009  -0.009  -0.028   0.028   0.028  -0.028  -0.009   0.009
      0.000   0.009   0.009  -0.028  -0.028   0.028   0.028  -0.009  -0.009
       1       2       3       4       5       6       7       8       9
      0.311   0.009  -0.009  -0.028   0.028   0.028  -0.028  -0.009   0.009
      0.000  -0.009  -0.009   0.028   0.028  -0.028  -0.028   0.009   0.009


   Upper and lower wings at the   16 th omega   0.0000   6.0533 [eV]
       1       2       3       4       5       6       7       8       9
      0.211   0.009  -0.009  -0.026   0.026   0.026  -0.026  -0.009   0.009
     -0.000   0.009   0.009  -0.026  -0.026   0.026   0.026  -0.009  -0.009
       1       2       3       4       5       6       7       8       9
      0.211   0.009  -0.009  -0.026   0.026   0.026  -0.026  -0.009   0.009
     -0.000  -0.009  -0.009   0.026   0.026  -0.026  -0.026   0.009   0.009


   Upper and lower wings at the   17 th omega   0.0000   3.9527 [eV]
       1       2       3       4       5       6       7       8       9
      0.143   0.008  -0.008  -0.023   0.023   0.023  -0.023  -0.008   0.008
     -0.000   0.008   0.008  -0.023  -0.023   0.023   0.023  -0.008  -0.008
       1       2       3       4       5       6       7       8       9
      0.143   0.008  -0.008  -0.023   0.023   0.023  -0.023  -0.008   0.008
     -0.000  -0.008  -0.008   0.023   0.023  -0.023  -0.023   0.008   0.008


   Upper and lower wings at the   18 th omega   0.0000   2.3804 [eV]
       1       2       3       4       5       6       7       8       9
      0.103   0.007  -0.007  -0.020   0.020   0.020  -0.020  -0.007   0.007
      0.000   0.007   0.007  -0.020  -0.020   0.020   0.020  -0.007  -0.007
       1       2       3       4       5       6       7       8       9
      0.103   0.007  -0.007  -0.020   0.020   0.020  -0.020  -0.007   0.007
      0.000  -0.007  -0.007   0.020   0.020  -0.020  -0.020   0.007   0.007


   Upper and lower wings at the   19 th omega   0.0000   1.2489 [eV]
       1       2       3       4       5       6       7       8       9
      0.084   0.006  -0.006  -0.018   0.018   0.018  -0.018  -0.006   0.006
     -0.000   0.006   0.006  -0.018  -0.018   0.018   0.018  -0.006  -0.006
       1       2       3       4       5       6       7       8       9
      0.084   0.006  -0.006  -0.018   0.018   0.018  -0.018  -0.006   0.006
     -0.000  -0.006  -0.006   0.018   0.018  -0.018  -0.018   0.006   0.006


   Upper and lower wings at the   20 th omega   0.0000   0.4992 [eV]
       1       2       3       4       5       6       7       8       9
      0.077   0.006  -0.006  -0.017   0.017   0.017  -0.017  -0.006   0.006
     -0.000   0.006   0.006  -0.017  -0.017   0.017   0.017  -0.006  -0.006
       1       2       3       4       5       6       7       8       9
      0.077   0.006  -0.006  -0.017   0.017   0.017  -0.017  -0.006   0.006
     -0.000  -0.006  -0.006   0.017   0.017  -0.017  -0.017   0.006   0.006


   Upper and lower wings at the   21 th omega   0.0000   0.0938 [eV]
       1       2       3       4       5       6       7       8       9
      0.076   0.006  -0.006  -0.017   0.017   0.017  -0.017  -0.006   0.006
      0.000   0.006   0.006  -0.017  -0.017   0.017   0.017  -0.006  -0.006
       1       2       3       4       5       6       7       8       9
      0.076   0.006  -0.006  -0.017   0.017   0.017  -0.017  -0.006   0.006
      0.000  -0.006  -0.006   0.017   0.017  -0.017  -0.017   0.006   0.006




--------------------------------------------------------------------------------
  q-point number  2        q = ( 0.125000, 0.000000, 0.000000) [r.l.u.]
--------------------------------------------------------------------------------
  chi0(G,G') at the    1 th omega   0.0000   0.0000 [eV]
       1       2       3       4       5       6       7       8       9
    1  -3.611  -1.248   1.559  -0.161  -1.016  -0.161  -1.016  -0.161  -1.016
        0.000  -1.248  -1.559  -0.161   1.016  -0.161   1.016  -0.161   1.016

    2  -1.248 -18.821   0.000  -0.414  -0.000  -0.414  -0.000  -0.414   0.000
        1.248   0.000  -4.350   0.000  -0.048   0.000  -0.048   0.000  -0.048

  chi0(G,G') at the    2 th omega   0.00007892.9739 [eV]
       1       2       3       4       5       6       7       8       9
    1  -0.000  -0.000   0.000   0.000  -0.000   0.000  -0.000   0.000  -0.000
        0.000  -0.000  -0.000   0.000   0.000   0.000   0.000   0.000   0.000

    2  -0.000  -0.000  -0.000  -0.000   0.000  -0.000  -0.000  -0.000  -0.000
        0.000   0.000  -0.000   0.000  -0.000   0.000  -0.000   0.000  -0.000

  chi0(G,G') at the    3 th omega   0.00001483.3542 [eV]
       1       2       3       4       5       6       7       8       9
    1  -0.000  -0.000   0.000   0.000  -0.000   0.000  -0.000   0.000  -0.000
        0.000  -0.000  -0.000   0.000   0.000   0.000   0.000   0.000   0.000

    2  -0.000  -0.004  -0.000  -0.000   0.000  -0.000   0.000  -0.000  -0.000
        0.000   0.000  -0.000   0.000  -0.000   0.000  -0.000   0.000  -0.000

  chi0(G,G') at the    4 th omega   0.0000 592.8811 [eV]
       1       2       3       4       5       6       7       8       9
    1  -0.000  -0.000   0.000   0.000  -0.000   0.000  -0.000   0.000  -0.000
        0.000  -0.000  -0.000   0.000   0.000   0.000   0.000   0.000   0.000

    2  -0.000  -0.023  -0.000  -0.000   0.000  -0.000   0.000  -0.000  -0.000
        0.000   0.000  -0.001   0.000  -0.000   0.000  -0.000   0.000  -0.000

  chi0(G,G') at the    5 th omega   0.0000 311.0640 [eV]
       1       2       3       4       5       6       7       8       9
    1  -0.001  -0.001   0.001   0.000  -0.001   0.000  -0.001   0.000  -0.001
        0.000  -0.001  -0.001   0.000   0.001   0.000   0.001   0.000   0.001

    2  -0.001  -0.082  -0.000  -0.001   0.000  -0.001  -0.000  -0.001  -0.000
        0.001   0.000  -0.003   0.000  -0.000   0.000  -0.000   0.000  -0.000

  chi0(G,G') at the    6 th omega   0.0000 187.3318 [eV]
       1       2       3       4       5       6       7       8       9
    1  -0.003  -0.003   0.003   0.001  -0.001   0.001  -0.001   0.001  -0.001
        0.000  -0.003  -0.003   0.001   0.001   0.001   0.001   0.001   0.001

    2  -0.003  -0.221  -0.000  -0.004   0.000  -0.004  -0.000  -0.004  -0.000
        0.003   0.000  -0.008   0.000  -0.000   0.000  -0.000   0.000  -0.000

  chi0(G,G') at the    7 th omega   0.0000 122.3238 [eV]
       1       2       3       4       5       6       7       8       9
    1  -0.006  -0.008   0.006   0.001  -0.003   0.001  -0.003   0.001  -0.003
        0.000  -0.008  -0.006   0.001   0.003   0.001   0.003   0.001   0.003

    2  -0.008  -0.495  -0.000  -0.008   0.000  -0.008  -0.000  -0.008  -0.000
        0.008   0.000  -0.019   0.000  -0.001   0.000  -0.001   0.000  -0.001

  chi0(G,G') at the    8 th omega   0.0000  84.0524 [eV]
       1       2       3       4       5       6       7       8       9
    1  -0.014  -0.016   0.012   0.003  -0.007   0.003  -0.007   0.003  -0.007
        0.000  -0.016  -0.012   0.003   0.007   0.003   0.007   0.003   0.007

    2  -0.016  -0.976  -0.000  -0.016   0.000  -0.016   0.000  -0.016  -0.000
        0.016   0.000  -0.042   0.000  -0.004   0.000  -0.004   0.000  -0.004

  chi0(G,G') at the    9 th omega   0.0000  59.6851 [eV]
       1       2       3       4       5       6       7       8       9
    1  -0.026  -0.029   0.024   0.005  -0.013   0.005  -0.013   0.005  -0.013
        0.000  -0.029  -0.024   0.005   0.013   0.005   0.013   0.005   0.013

    2  -0.029  -1.737  -0.000  -0.026   0.000  -0.026  -0.000  -0.026  -0.000
        0.029   0.000  -0.087   0.000  -0.011   0.000  -0.011   0.000  -0.011

  chi0(G,G') at the   10 th omega   0.0000  43.2649 [eV]
       1       2       3       4       5       6       7       8       9
    1  -0.049  -0.052   0.042   0.009  -0.023   0.009  -0.023   0.009  -0.023
        0.000  -0.052  -0.042   0.009   0.023   0.009   0.023   0.009   0.023

    2  -0.052  -2.841  -0.000  -0.036   0.000  -0.036   0.000  -0.036  -0.000
        0.052   0.000  -0.171   0.000  -0.025   0.000  -0.025   0.000  -0.025

  chi0(G,G') at the   11 th omega   0.0000  31.7213 [eV]
       1       2       3       4       5       6       7       8       9
    1  -0.089  -0.089   0.074   0.014  -0.040   0.014  -0.040   0.014  -0.040
        0.000  -0.089  -0.074   0.014   0.040   0.014   0.040   0.014   0.040

    2  -0.089  -4.313  -0.000  -0.041   0.000  -0.041   0.000  -0.041  -0.000
        0.089   0.000  -0.321   0.000  -0.048   0.000  -0.048   0.000  -0.048

  chi0(G,G') at the   12 th omega   0.0000  23.3427 [eV]
       1       2       3       4       5       6       7       8       9
    1  -0.158  -0.146   0.126   0.022  -0.068   0.022  -0.068   0.022  -0.068
        0.000  -0.146  -0.126   0.022   0.068   0.022   0.068   0.022   0.068

    2  -0.146  -6.135  -0.000  -0.036   0.000  -0.036   0.000  -0.036  -0.000
        0.146   0.000  -0.568   0.000  -0.076   0.000  -0.076   0.000  -0.076

  chi0(G,G') at the   13 th omega   0.0000  17.1146 [eV]
       1       2       3       4       5       6       7       8       9
    1  -0.277  -0.232   0.208   0.030  -0.114   0.030  -0.114   0.030  -0.114
        0.000  -0.232  -0.208   0.030   0.114   0.030   0.114   0.030   0.114

    2  -0.232  -8.234  -0.000  -0.023   0.000  -0.023   0.000  -0.023   0.000
        0.232   0.000  -0.942   0.000  -0.100   0.000  -0.100   0.000  -0.100

  chi0(G,G') at the   14 th omega   0.0000  12.4061 [eV]
       1       2       3       4       5       6       7       8       9
    1  -0.480  -0.355   0.333   0.037  -0.185   0.037  -0.185   0.037  -0.185
        0.000  -0.355  -0.333   0.037   0.185   0.037   0.185   0.037   0.185

    2  -0.355 -10.495  -0.000  -0.014   0.000  -0.014   0.000  -0.014   0.000
        0.355   0.000  -1.455   0.000  -0.108   0.000  -0.108   0.000  -0.108

  chi0(G,G') at the   15 th omega   0.0000   8.8095 [eV]
       1       2       3       4       5       6       7       8       9
    1  -0.817  -0.523   0.516   0.037  -0.293   0.037  -0.293   0.037  -0.293
        0.000  -0.523  -0.516   0.037   0.293   0.037   0.293   0.037   0.293

    2  -0.523 -12.766   0.000  -0.029  -0.000  -0.029  -0.000  -0.029  -0.000
        0.523   0.000  -2.084   0.000  -0.093  -0.000  -0.093   0.000  -0.093

 No. of calculated frequencies >  15, stop printing
  Average fulfillment of the sum rule on Im[epsilon] for q-point    2 :     95.38  [%]


--------------------------------------------------------------------------------
  q-point number  3        q = ( 0.250000, 0.000000, 0.000000) [r.l.u.]
--------------------------------------------------------------------------------
  chi0(G,G') at the    1 th omega   0.0000   0.0000 [eV]
       1       2       3       4       5       6       7       8       9
    1  -8.875  -1.688   2.411  -0.954  -1.916  -0.954  -1.916  -0.954  -1.916
        0.000  -1.688  -2.411  -0.954   1.916  -0.954   1.916  -0.954   1.916

    2  -1.688 -18.504  -0.000  -0.323  -0.000  -0.323   0.000  -0.323   0.000
        1.688   0.000  -4.025  -0.000   0.012  -0.000   0.012  -0.000   0.012

  chi0(G,G') at the    2 th omega   0.00007892.9739 [eV]
       1       2       3       4       5       6       7       8       9
    1  -0.000  -0.000   0.000   0.000  -0.000   0.000  -0.000   0.000  -0.000
        0.000  -0.000  -0.000   0.000   0.000   0.000   0.000   0.000   0.000

    2  -0.000  -0.000  -0.000  -0.000   0.000  -0.000   0.000  -0.000   0.000
        0.000   0.000  -0.000  -0.000  -0.000  -0.000  -0.000  -0.000  -0.000

  chi0(G,G') at the    3 th omega   0.00001483.3542 [eV]
       1       2       3       4       5       6       7       8       9
    1  -0.000  -0.000   0.000   0.000  -0.000   0.000  -0.000   0.000  -0.000
        0.000  -0.000  -0.000   0.000   0.000   0.000   0.000   0.000   0.000

    2  -0.000  -0.005  -0.000  -0.000   0.000  -0.000   0.000  -0.000   0.000
        0.000   0.000  -0.000  -0.000  -0.000  -0.000  -0.000  -0.000  -0.000

  chi0(G,G') at the    4 th omega   0.0000 592.8811 [eV]
       1       2       3       4       5       6       7       8       9
    1  -0.001  -0.001   0.000   0.000  -0.000   0.000  -0.000   0.000  -0.000
        0.000  -0.001  -0.000   0.000   0.000   0.000   0.000   0.000   0.000

    2  -0.001  -0.028  -0.000  -0.000   0.000  -0.000   0.000  -0.000   0.000
        0.001   0.000  -0.001  -0.000  -0.000  -0.000  -0.000  -0.000  -0.000

  chi0(G,G') at the    5 th omega   0.0000 311.0640 [eV]
       1       2       3       4       5       6       7       8       9
    1  -0.004  -0.003   0.002   0.000  -0.001   0.000  -0.001   0.000  -0.001
        0.000  -0.003  -0.002   0.000   0.001   0.000   0.001   0.000   0.001

    2  -0.003  -0.101  -0.000  -0.001   0.000  -0.001   0.000  -0.001   0.000
        0.003   0.000  -0.003  -0.000  -0.000  -0.000  -0.000  -0.000  -0.000

  chi0(G,G') at the    6 th omega   0.0000 187.3318 [eV]
       1       2       3       4       5       6       7       8       9
    1  -0.011  -0.008   0.005   0.000  -0.004   0.000  -0.004   0.000  -0.004
        0.000  -0.008  -0.005   0.000   0.004   0.000   0.004   0.000   0.004

    2  -0.008  -0.270  -0.000  -0.003   0.000  -0.003   0.000  -0.003   0.000
        0.008   0.000  -0.008  -0.000  -0.000  -0.000  -0.000  -0.000  -0.000

  chi0(G,G') at the    7 th omega   0.0000 122.3238 [eV]
       1       2       3       4       5       6       7       8       9
    1  -0.026  -0.017   0.010   0.001  -0.008   0.001  -0.008   0.001  -0.008
        0.000  -0.017  -0.010   0.001   0.008   0.001   0.008   0.001   0.008

    2  -0.017  -0.600  -0.000  -0.006   0.000  -0.006   0.000  -0.006   0.000
        0.017   0.000  -0.018  -0.000  -0.002  -0.000  -0.002  -0.000  -0.002

  chi0(G,G') at the    8 th omega   0.0000  84.0524 [eV]
       1       2       3       4       5       6       7       8       9
    1  -0.054  -0.035   0.021   0.002  -0.017   0.002  -0.017   0.002  -0.017
        0.000  -0.035  -0.021   0.002   0.017   0.002   0.017   0.002   0.017

    2  -0.035  -1.164  -0.000  -0.010   0.000  -0.010   0.000  -0.010   0.000
        0.035   0.000  -0.040  -0.000  -0.005  -0.000  -0.005  -0.000  -0.005

  chi0(G,G') at the    9 th omega   0.0000  59.6851 [eV]
       1       2       3       4       5       6       7       8       9
    1  -0.105  -0.064   0.041   0.003  -0.032   0.003  -0.032   0.003  -0.032
        0.000  -0.064  -0.041   0.003   0.032   0.003   0.032   0.003   0.032

    2  -0.064  -2.027  -0.000  -0.016   0.000  -0.016   0.000  -0.016   0.000
        0.064   0.000  -0.082  -0.000  -0.012  -0.000  -0.012  -0.000  -0.012

  chi0(G,G') at the   10 th omega   0.0000  43.2649 [eV]
       1       2       3       4       5       6       7       8       9
    1  -0.195  -0.112   0.074   0.003  -0.058   0.003  -0.058   0.003  -0.058
        0.000  -0.112  -0.074   0.003   0.058   0.003   0.058   0.003   0.058

    2  -0.112  -3.228  -0.000  -0.020  -0.000  -0.020   0.000  -0.020   0.000
        0.112   0.000  -0.161  -0.000  -0.026  -0.000  -0.026  -0.000  -0.026

  chi0(G,G') at the   11 th omega   0.0000  31.7213 [eV]
       1       2       3       4       5       6       7       8       9
    1  -0.349  -0.187   0.130   0.002  -0.102   0.002  -0.102   0.002  -0.102
        0.000  -0.187  -0.130   0.002   0.102   0.002   0.102   0.002   0.102

    2  -0.187  -4.764  -0.000  -0.020   0.000  -0.020   0.000  -0.020   0.000
        0.187   0.000  -0.302  -0.000  -0.047  -0.000  -0.047  -0.000  -0.047

  chi0(G,G') at the   12 th omega   0.0000  23.3427 [eV]
       1       2       3       4       5       6       7       8       9
    1  -0.611  -0.301   0.222  -0.006  -0.174  -0.006  -0.174  -0.006  -0.174
        0.000  -0.301  -0.222  -0.006   0.174  -0.006   0.174  -0.006   0.174

    2  -0.301  -6.590  -0.000  -0.013   0.000  -0.013   0.000  -0.013   0.000
        0.301   0.000  -0.536  -0.000  -0.068  -0.000  -0.068  -0.000  -0.068

  chi0(G,G') at the   13 th omega   0.0000  17.1146 [eV]
       1       2       3       4       5       6       7       8       9
    1  -1.046  -0.465   0.370  -0.027  -0.287  -0.027  -0.287  -0.027  -0.287
        0.000  -0.465  -0.370  -0.027   0.287  -0.027   0.287  -0.027   0.287

    2  -0.465  -8.627  -0.000  -0.003   0.000  -0.003   0.000  -0.003   0.000
        0.465   0.000  -0.893  -0.000  -0.079  -0.000  -0.079  -0.000  -0.079

  chi0(G,G') at the   14 th omega   0.0000  12.4061 [eV]
       1       2       3       4       5       6       7       8       9
    1  -1.749  -0.687   0.597  -0.078  -0.458  -0.078  -0.458  -0.078  -0.458
        0.000  -0.687  -0.597  -0.078   0.458  -0.078   0.458  -0.078   0.458

    2  -0.687 -10.766  -0.000  -0.003   0.000  -0.003   0.000  -0.003   0.000
        0.687   0.000  -1.386  -0.000  -0.068  -0.000  -0.068  -0.000  -0.068

  chi0(G,G') at the   15 th omega   0.0000   8.8095 [eV]
       1       2       3       4       5       6       7       8       9
    1  -2.819  -0.960   0.920  -0.180  -0.698  -0.180  -0.698  -0.180  -0.698
        0.000  -0.960  -0.920  -0.180   0.698  -0.180   0.698  -0.180   0.698

    2  -0.960 -12.879  -0.000  -0.029   0.000  -0.029   0.000  -0.029   0.000
        0.960   0.000  -1.990  -0.000  -0.033  -0.000  -0.033  -0.000  -0.033

 No. of calculated frequencies >  15, stop printing
  Average fulfillment of the sum rule on Im[epsilon] for q-point    3 :     95.48  [%]


--------------------------------------------------------------------------------
  q-point number  4        q = ( 0.375000, 0.000000, 0.000000) [r.l.u.]
--------------------------------------------------------------------------------
  chi0(G,G') at the    1 th omega   0.0000   0.0000 [eV]
       1       2       3       4       5       6       7       8       9
    1 -12.331  -1.964   2.772  -1.580  -2.348  -1.580  -2.348  -1.580  -2.348
        0.000  -1.964  -2.772  -1.580   2.348  -1.580   2.348  -1.580   2.348

    2  -1.964 -17.916   0.000  -0.010   0.000  -0.010   0.000  -0.010  -0.000
        1.964   0.000  -3.763  -0.000   0.124   0.000   0.124  -0.000   0.124

  chi0(G,G') at the    2 th omega   0.00007892.9739 [eV]
       1       2       3       4       5       6       7       8       9
    1  -0.000  -0.000   0.000  -0.000  -0.000  -0.000  -0.000  -0.000  -0.000
        0.000  -0.000  -0.000  -0.000   0.000  -0.000   0.000  -0.000   0.000

    2  -0.000  -0.000  -0.000  -0.000  -0.000  -0.000  -0.000  -0.000  -0.000
        0.000   0.000  -0.000  -0.000  -0.000   0.000  -0.000   0.000  -0.000

  chi0(G,G') at the    3 th omega   0.00001483.3542 [eV]
       1       2       3       4       5       6       7       8       9
    1  -0.000  -0.000   0.000  -0.000  -0.000  -0.000  -0.000  -0.000  -0.000
        0.000  -0.000  -0.000  -0.000   0.000  -0.000   0.000  -0.000   0.000

    2  -0.000  -0.005  -0.000  -0.000  -0.000  -0.000  -0.000  -0.000  -0.000
        0.000   0.000  -0.000  -0.000  -0.000  -0.000  -0.000   0.000  -0.000

  chi0(G,G') at the    4 th omega   0.0000 592.8811 [eV]
       1       2       3       4       5       6       7       8       9
    1  -0.003  -0.001   0.001  -0.000  -0.001  -0.000  -0.001  -0.000  -0.001
        0.000  -0.001  -0.001  -0.000   0.001  -0.000   0.001  -0.000   0.001

    2  -0.001  -0.034  -0.000  -0.000  -0.000  -0.000  -0.000  -0.000  -0.000
        0.001   0.000  -0.001  -0.000  -0.000  -0.000  -0.000   0.000  -0.000

  chi0(G,G') at the    5 th omega   0.0000 311.0640 [eV]
       1       2       3       4       5       6       7       8       9
    1  -0.009  -0.005   0.002  -0.000  -0.002  -0.000  -0.002  -0.000  -0.002
        0.000  -0.005  -0.002  -0.000   0.002  -0.000   0.002  -0.000   0.002

    2  -0.005  -0.122  -0.000  -0.001  -0.000  -0.001  -0.000  -0.001  -0.000
        0.005   0.000  -0.002  -0.000  -0.000   0.000  -0.000   0.000  -0.000

  chi0(G,G') at the    6 th omega   0.0000 187.3318 [eV]
       1       2       3       4       5       6       7       8       9
    1  -0.025  -0.013   0.006  -0.001  -0.007  -0.001  -0.007  -0.001  -0.007
        0.000  -0.013  -0.006  -0.001   0.007  -0.001   0.007  -0.001   0.007

    2  -0.013  -0.324  -0.000  -0.001  -0.000  -0.001  -0.000  -0.001  -0.000
        0.013   0.000  -0.007  -0.000  -0.001  -0.000  -0.001   0.000  -0.001

  chi0(G,G') at the    7 th omega   0.0000 122.3238 [eV]
       1       2       3       4       5       6       7       8       9
    1  -0.058  -0.028   0.013  -0.001  -0.015  -0.001  -0.015  -0.001  -0.015
        0.000  -0.028  -0.013  -0.001   0.015  -0.001   0.015  -0.001   0.015

    2  -0.028  -0.710  -0.000  -0.003  -0.000  -0.003  -0.000  -0.003  -0.000
        0.028   0.000  -0.017  -0.000  -0.002   0.000  -0.002   0.000  -0.002

  chi0(G,G') at the    8 th omega   0.0000  84.0524 [eV]
       1       2       3       4       5       6       7       8       9
    1  -0.121  -0.056   0.027  -0.003  -0.031  -0.003  -0.031  -0.003  -0.031
        0.000  -0.056  -0.027  -0.003   0.031  -0.003   0.031  -0.003   0.031

    2  -0.056  -1.352  -0.000  -0.004  -0.000  -0.004  -0.000  -0.004  -0.000
        0.056   0.000  -0.036  -0.000  -0.005  -0.000  -0.005   0.000  -0.005

  chi0(G,G') at the    9 th omega   0.0000  59.6851 [eV]
       1       2       3       4       5       6       7       8       9
    1  -0.234  -0.103   0.051  -0.007  -0.058  -0.007  -0.058  -0.007  -0.058
        0.000  -0.103  -0.051  -0.007   0.058  -0.007   0.058  -0.007   0.058

    2  -0.103  -2.300  -0.000  -0.005  -0.000  -0.005  -0.000  -0.005  -0.000
        0.103   0.000  -0.075  -0.000  -0.013  -0.000  -0.013   0.000  -0.013

  chi0(G,G') at the   10 th omega   0.0000  43.2649 [eV]
       1       2       3       4       5       6       7       8       9
    1  -0.429  -0.178   0.093  -0.016  -0.105  -0.016  -0.105  -0.016  -0.105
        0.000  -0.178  -0.093  -0.016   0.105  -0.016   0.105  -0.016   0.105

    2  -0.178  -3.565   0.000  -0.003  -0.000  -0.003  -0.000  -0.003  -0.000
        0.178   0.000  -0.146  -0.000  -0.027  -0.000  -0.027   0.000  -0.027

  chi0(G,G') at the   11 th omega   0.0000  31.7213 [eV]
       1       2       3       4       5       6       7       8       9
    1  -0.759  -0.291   0.164  -0.036  -0.182  -0.036  -0.182  -0.036  -0.182
        0.000  -0.291  -0.164  -0.036   0.182  -0.036   0.182  -0.036   0.182

    2  -0.291  -5.118   0.000   0.002  -0.000   0.002  -0.000   0.002  -0.000
        0.291   0.000  -0.272  -0.000  -0.044  -0.000  -0.044  -0.000  -0.044

  chi0(G,G') at the   12 th omega   0.0000  23.3427 [eV]
       1       2       3       4       5       6       7       8       9
    1  -1.300  -0.456   0.282  -0.077  -0.304  -0.077  -0.304  -0.077  -0.304
        0.000  -0.456  -0.282  -0.077   0.304  -0.077   0.304  -0.077   0.304

    2  -0.456  -6.895   0.000   0.012  -0.000   0.012  -0.000   0.012  -0.000
        0.456   0.000  -0.483  -0.000  -0.060  -0.000  -0.060  -0.000  -0.060

  chi0(G,G') at the   13 th omega   0.0000  17.1146 [eV]
       1       2       3       4       5       6       7       8       9
    1  -2.154  -0.682   0.472  -0.156  -0.488  -0.156  -0.488  -0.156  -0.488
        0.000  -0.682  -0.472  -0.156   0.488  -0.156   0.488  -0.156   0.488

    2  -0.682  -8.820   0.000   0.024  -0.000   0.024  -0.000   0.024  -0.000
        0.682   0.000  -0.809  -0.000  -0.063  -0.000  -0.063  -0.000  -0.063

  chi0(G,G') at the   14 th omega   0.0000  12.4061 [eV]
       1       2       3       4       5       6       7       8       9
    1  -3.430  -0.968   0.761  -0.297  -0.746  -0.297  -0.746  -0.297  -0.746
        0.000  -0.968  -0.761  -0.297   0.746  -0.297   0.746  -0.297   0.746

    2  -0.968 -10.798   0.000   0.029  -0.000   0.029  -0.000   0.029  -0.000
        0.968   0.000  -1.270  -0.000  -0.045  -0.000  -0.045  -0.000  -0.045

  chi0(G,G') at the   15 th omega   0.0000   8.8095 [eV]
       1       2       3       4       5       6       7       8       9
    1  -5.179  -1.291   1.161  -0.520  -1.077  -0.520  -1.077  -0.520  -1.077
        0.000  -1.291  -1.161  -0.520   1.077  -0.520   1.077  -0.520   1.077

    2  -1.291 -12.725   0.000   0.022  -0.000   0.022  -0.000   0.022  -0.000
        1.291   0.000  -1.844  -0.000  -0.003  -0.000  -0.003  -0.000  -0.003

 No. of calculated frequencies >  15, stop printing
  Average fulfillment of the sum rule on Im[epsilon] for q-point    4 :     95.56  [%]


--------------------------------------------------------------------------------
  q-point number  5        q = ( 0.500000, 0.000000, 0.000000) [r.l.u.]
--------------------------------------------------------------------------------
  chi0(G,G') at the    1 th omega   0.0000   0.0000 [eV]
       1       2       3       4       5       6       7       8       9
    1 -14.555  -2.272   2.876  -1.977  -2.540  -1.977  -2.540  -1.977  -2.540
        0.000  -2.272  -2.876  -1.977   2.540  -1.977   2.540  -1.977   2.540

    2  -2.272 -16.925  -0.000   0.309   0.000   0.309   0.000   0.309   0.000
        2.272   0.000  -3.560  -0.000   0.223  -0.000   0.223  -0.000   0.223

  chi0(G,G') at the    2 th omega   0.00007892.9739 [eV]
       1       2       3       4       5       6       7       8       9
    1  -0.000  -0.000   0.000  -0.000  -0.000  -0.000  -0.000  -0.000  -0.000
        0.000  -0.000  -0.000  -0.000   0.000  -0.000   0.000  -0.000   0.000

    2  -0.000  -0.000   0.000  -0.000   0.000  -0.000   0.000  -0.000   0.000
        0.000   0.000  -0.000   0.000  -0.000   0.000  -0.000   0.000  -0.000

  chi0(G,G') at the    3 th omega   0.00001483.3542 [eV]
       1       2       3       4       5       6       7       8       9
    1  -0.001  -0.000   0.000  -0.000  -0.000  -0.000  -0.000  -0.000  -0.000
        0.000  -0.000  -0.000  -0.000   0.000  -0.000   0.000  -0.000   0.000

    2  -0.000  -0.007   0.000  -0.000   0.000  -0.000   0.000  -0.000   0.000
        0.000   0.000  -0.000   0.000  -0.000   0.000  -0.000   0.000  -0.000

  chi0(G,G') at the    4 th omega   0.0000 592.8811 [eV]
       1       2       3       4       5       6       7       8       9
    1  -0.005  -0.002   0.001  -0.000  -0.001  -0.000  -0.001  -0.000  -0.001
        0.000  -0.002  -0.001  -0.000   0.001  -0.000   0.001  -0.000   0.001

    2  -0.002  -0.041   0.000  -0.000   0.000  -0.000   0.000  -0.000   0.000
        0.002   0.000  -0.001   0.000  -0.000   0.000  -0.000   0.000  -0.000

  chi0(G,G') at the    5 th omega   0.0000 311.0640 [eV]
       1       2       3       4       5       6       7       8       9
    1  -0.016  -0.007   0.002  -0.001  -0.004  -0.001  -0.004  -0.001  -0.004
        0.000  -0.007  -0.002  -0.001   0.004  -0.001   0.004  -0.001   0.004

    2  -0.007  -0.145   0.000  -0.000   0.000  -0.000   0.000  -0.000   0.000
        0.007   0.000  -0.002   0.000  -0.000   0.000  -0.000   0.000  -0.000

  chi0(G,G') at the    6 th omega   0.0000 187.3318 [eV]
       1       2       3       4       5       6       7       8       9
    1  -0.045  -0.018   0.006  -0.002  -0.010  -0.002  -0.010  -0.002  -0.010
        0.000  -0.018  -0.006  -0.002   0.010  -0.002   0.010  -0.002   0.010

    2  -0.018  -0.381   0.000   0.000   0.000   0.000   0.000   0.000   0.000
        0.018   0.000  -0.006   0.000  -0.001   0.000  -0.001   0.000  -0.001

  chi0(G,G') at the    7 th omega   0.0000 122.3238 [eV]
       1       2       3       4       5       6       7       8       9
    1  -0.103  -0.041   0.014  -0.005  -0.024  -0.005  -0.024  -0.005  -0.024
        0.000  -0.041  -0.014  -0.005   0.024  -0.005   0.024  -0.005   0.024

    2  -0.041  -0.823   0.000   0.001   0.000   0.001   0.000   0.001   0.000
        0.041   0.000  -0.014   0.000  -0.002   0.000  -0.002   0.000  -0.002

  chi0(G,G') at the    8 th omega   0.0000  84.0524 [eV]
       1       2       3       4       5       6       7       8       9
    1  -0.213  -0.080   0.029  -0.012  -0.048  -0.012  -0.048  -0.012  -0.048
        0.000  -0.080  -0.029  -0.012   0.048  -0.012   0.048  -0.012   0.048

    2  -0.080  -1.536   0.000   0.003   0.000   0.003   0.000   0.003   0.000
        0.080   0.000  -0.032   0.000  -0.006   0.000  -0.006   0.000  -0.006

  chi0(G,G') at the    9 th omega   0.0000  59.6851 [eV]
       1       2       3       4       5       6       7       8       9
    1  -0.409  -0.145   0.055  -0.024  -0.091  -0.024  -0.091  -0.024  -0.091
        0.000  -0.145  -0.055  -0.024   0.091  -0.024   0.091  -0.024   0.091

    2  -0.145  -2.548   0.000   0.007   0.000   0.007   0.000   0.007   0.000
        0.145   0.000  -0.064   0.000  -0.014   0.000  -0.014   0.000  -0.014

  chi0(G,G') at the   10 th omega   0.0000  43.2649 [eV]
       1       2       3       4       5       6       7       8       9
    1  -0.742  -0.246   0.099  -0.049  -0.161  -0.049  -0.161  -0.049  -0.161
        0.000  -0.246  -0.099  -0.049   0.161  -0.049   0.161  -0.049   0.161

    2  -0.246  -3.842   0.000   0.014   0.000   0.014   0.000   0.014   0.000
        0.246   0.000  -0.125  -0.000  -0.026   0.000  -0.026   0.000  -0.026

  chi0(G,G') at the   11 th omega   0.0000  31.7213 [eV]
       1       2       3       4       5       6       7       8       9
    1  -1.287  -0.395   0.176  -0.096  -0.274  -0.096  -0.274  -0.096  -0.274
        0.000  -0.395  -0.176  -0.096   0.274  -0.096   0.274  -0.096   0.274

    2  -0.395  -5.367   0.000   0.024   0.000   0.024   0.000   0.024   0.000
        0.395   0.000  -0.231  -0.000  -0.042   0.000  -0.042   0.000  -0.042

  chi0(G,G') at the   12 th omega   0.0000  23.3427 [eV]
       1       2       3       4       5       6       7       8       9
    1  -2.143  -0.601   0.303  -0.182  -0.445  -0.182  -0.445  -0.182  -0.445
        0.000  -0.601  -0.303  -0.182   0.445  -0.182   0.445  -0.182   0.445

    2  -0.601  -7.052   0.000   0.038   0.000   0.038   0.000   0.038   0.000
        0.601   0.000  -0.410  -0.000  -0.054  -0.000  -0.054   0.000  -0.054

  chi0(G,G') at the   13 th omega   0.0000  17.1146 [eV]
       1       2       3       4       5       6       7       8       9
    1  -3.417  -0.870   0.507  -0.329  -0.688  -0.329  -0.688  -0.329  -0.688
        0.000  -0.870  -0.507  -0.329   0.688  -0.329   0.688  -0.329   0.688

    2  -0.870  -8.824   0.000   0.056   0.000   0.056   0.000   0.056   0.000
        0.870   0.000  -0.693  -0.000  -0.055  -0.000  -0.055   0.000  -0.055

  chi0(G,G') at the   14 th omega   0.0000  12.4061 [eV]
       1       2       3       4       5       6       7       8       9
    1  -5.173  -1.194   0.817  -0.556  -1.005  -0.556  -1.005  -0.556  -1.005
        0.000  -1.194  -0.817  -0.556   1.005  -0.556   1.005  -0.556   1.005

    2  -1.194 -10.609   0.000   0.077   0.000   0.077   0.000   0.077   0.000
        1.194   0.000  -1.105  -0.000  -0.037   0.000  -0.037   0.000  -0.037

  chi0(G,G') at the   15 th omega   0.0000   8.8095 [eV]
       1       2       3       4       5       6       7       8       9
    1  -7.353  -1.539   1.239  -0.866  -1.373  -0.866  -1.373  -0.866  -1.373
        0.000  -1.539  -1.239  -0.866   1.373  -0.866   1.373  -0.866   1.373

    2  -1.539 -12.326   0.000   0.103   0.000   0.103   0.000   0.103   0.000
        1.539   0.000  -1.638  -0.000   0.000  -0.000   0.000   0.000   0.000

 No. of calculated frequencies >  15, stop printing
  Average fulfillment of the sum rule on Im[epsilon] for q-point    5 :     95.59  [%]


--------------------------------------------------------------------------------
  q-point number  6        q = ( 0.125000, 0.125000, 0.000000) [r.l.u.]
--------------------------------------------------------------------------------
  chi0(G,G') at the    1 th omega   0.0000   0.0000 [eV]
       1       2       3       4       5       6       7       8       9
    1  -4.746  -1.400   0.341   0.341  -1.400   0.341  -1.400  -1.400   0.341
        0.000  -1.400  -0.341   0.341   1.400   0.341   1.400  -1.400  -0.341

    2  -1.400 -19.128  -0.000  -0.242  -0.000  -0.242   0.000  -0.544   0.000
        1.400   0.000  -4.005  -0.000   0.071   0.000   0.071   0.000  -0.287

  chi0(G,G') at the    2 th omega   0.00007892.9739 [eV]
       1       2       3       4       5       6       7       8       9
    1  -0.000  -0.000   0.000   0.000  -0.000   0.000  -0.000  -0.000   0.000
        0.000  -0.000  -0.000   0.000   0.000   0.000   0.000  -0.000  -0.000

    2  -0.000  -0.000  -0.000  -0.000   0.000  -0.000   0.000  -0.000   0.000
        0.000   0.000  -0.000  -0.000  -0.000   0.000  -0.000   0.000  -0.000

  chi0(G,G') at the    3 th omega   0.00001483.3542 [eV]
       1       2       3       4       5       6       7       8       9
    1  -0.000  -0.000   0.000   0.000  -0.000   0.000  -0.000  -0.000   0.000
        0.000  -0.000  -0.000   0.000   0.000   0.000   0.000  -0.000  -0.000

    2  -0.000  -0.003  -0.000  -0.000   0.000  -0.000   0.000  -0.000   0.000
        0.000   0.000  -0.000  -0.000  -0.000   0.000  -0.000   0.000  -0.000

  chi0(G,G') at the    4 th omega   0.0000 592.8811 [eV]
       1       2       3       4       5       6       7       8       9
    1  -0.000  -0.000   0.000   0.000  -0.000   0.000  -0.000  -0.000   0.000
        0.000  -0.000  -0.000   0.000   0.000   0.000   0.000  -0.000  -0.000

    2  -0.000  -0.021  -0.000  -0.000   0.000  -0.000   0.000  -0.000   0.000
        0.000   0.000  -0.001  -0.000  -0.000   0.000  -0.000   0.000  -0.000

  chi0(G,G') at the    5 th omega   0.0000 311.0640 [eV]
       1       2       3       4       5       6       7       8       9
    1  -0.001  -0.001   0.001   0.001  -0.001   0.001  -0.001  -0.001   0.001
        0.000  -0.001  -0.001   0.001   0.001   0.001   0.001  -0.001  -0.001

    2  -0.001  -0.077  -0.000  -0.001   0.000  -0.001   0.000  -0.001   0.000
        0.001   0.000  -0.003  -0.000  -0.000   0.000  -0.000   0.000  -0.000

  chi0(G,G') at the    6 th omega   0.0000 187.3318 [eV]
       1       2       3       4       5       6       7       8       9
    1  -0.004  -0.003   0.002   0.002  -0.003   0.002  -0.003  -0.003   0.002
        0.000  -0.003  -0.002   0.002   0.003   0.002   0.003  -0.003  -0.002

    2  -0.003  -0.208  -0.000  -0.004   0.000  -0.004   0.000  -0.003   0.000
        0.003   0.000  -0.008  -0.000  -0.000   0.000  -0.000   0.000  -0.000

  chi0(G,G') at the    7 th omega   0.0000 122.3238 [eV]
       1       2       3       4       5       6       7       8       9
    1  -0.009  -0.006   0.003   0.003  -0.006   0.003  -0.006  -0.006   0.003
        0.000  -0.006  -0.003   0.003   0.006   0.003   0.006  -0.006  -0.003

    2  -0.006  -0.467  -0.000  -0.009   0.000  -0.009   0.000  -0.007   0.000
        0.006   0.000  -0.019  -0.000  -0.001   0.000  -0.001   0.000  -0.001

  chi0(G,G') at the    8 th omega   0.0000  84.0524 [eV]
       1       2       3       4       5       6       7       8       9
    1  -0.018  -0.012   0.007   0.007  -0.012   0.007  -0.012  -0.012   0.007
        0.000  -0.012  -0.007   0.007   0.012   0.007   0.012  -0.012  -0.007

    2  -0.012  -0.924  -0.000  -0.019   0.000  -0.019   0.000  -0.012   0.000
        0.012   0.000  -0.041  -0.000  -0.004   0.000  -0.004   0.000  -0.003

  chi0(G,G') at the    9 th omega   0.0000  59.6851 [eV]
       1       2       3       4       5       6       7       8       9
    1  -0.035  -0.022   0.013   0.013  -0.022   0.013  -0.022  -0.022   0.013
        0.000  -0.022  -0.013   0.013   0.022   0.013   0.022  -0.022  -0.013

    2  -0.022  -1.654  -0.000  -0.032   0.000  -0.032   0.000  -0.019   0.000
        0.022   0.000  -0.086  -0.000  -0.011   0.000  -0.011   0.000  -0.009

  chi0(G,G') at the   10 th omega   0.0000  43.2649 [eV]
       1       2       3       4       5       6       7       8       9
    1  -0.066  -0.040   0.023   0.023  -0.040   0.023  -0.040  -0.040   0.023
        0.000  -0.040  -0.023   0.023   0.040   0.023   0.040  -0.040  -0.023

    2  -0.040  -2.724  -0.000  -0.046   0.000  -0.046   0.000  -0.025   0.000
        0.040   0.000  -0.170  -0.000  -0.024   0.000  -0.024   0.000  -0.022

  chi0(G,G') at the   11 th omega   0.0000  31.7213 [eV]
       1       2       3       4       5       6       7       8       9
    1  -0.118  -0.069   0.039   0.039  -0.069   0.039  -0.069  -0.069   0.039
        0.000  -0.069  -0.039   0.039   0.069   0.039   0.069  -0.069  -0.039

    2  -0.069  -4.170  -0.000  -0.056   0.000  -0.056   0.000  -0.026   0.000
        0.069   0.000  -0.318  -0.000  -0.047   0.000  -0.047   0.000  -0.045

  chi0(G,G') at the   12 th omega   0.0000  23.3427 [eV]
       1       2       3       4       5       6       7       8       9
    1  -0.210  -0.116   0.063   0.063  -0.116   0.063  -0.116  -0.116   0.063
        0.000  -0.116  -0.063   0.063   0.116   0.063   0.116  -0.116  -0.063

    2  -0.116  -5.981  -0.000  -0.055   0.000  -0.055   0.000  -0.018   0.000
        0.116   0.000  -0.562  -0.000  -0.074   0.000  -0.074   0.000  -0.079

  chi0(G,G') at the   13 th omega   0.0000  17.1146 [eV]
[...]
       omegasimax      5.87989206E-01 Hartree
        optdriver1          3
        optdriver2          4
            rprim      0.0000000000E+00  5.0000000000E-01  5.0000000000E-01
                       5.0000000000E-01  0.0000000000E+00  5.0000000000E-01
                       5.0000000000E-01  5.0000000000E-01  0.0000000000E+00
          spgroup         227
           strten1     0.0000000000E+00  0.0000000000E+00  0.0000000000E+00
                       0.0000000000E+00  0.0000000000E+00  0.0000000000E+00
           strten2     0.0000000000E+00  0.0000000000E+00  0.0000000000E+00
                       0.0000000000E+00  0.0000000000E+00  0.0000000000E+00
           symrel      1  0  0   0  1  0   0  0  1      -1  0  0   0 -1  0   0  0 -1
                       0 -1  1   0 -1  0   1 -1  0       0  1 -1   0  1  0  -1  1  0
                      -1  0  0  -1  0  1  -1  1  0       1  0  0   1  0 -1   1 -1  0
                       0  1 -1   1  0 -1   0  0 -1       0 -1  1  -1  0  1   0  0  1
                      -1  0  0  -1  1  0  -1  0  1       1  0  0   1 -1  0   1  0 -1
                       0 -1  1   1 -1  0   0 -1  0       0  1 -1  -1  1  0   0  1  0
                       1  0  0   0  0  1   0  1  0      -1  0  0   0  0 -1   0 -1  0
                       0  1 -1   0  0 -1   1  0 -1       0 -1  1   0  0  1  -1  0  1
                      -1  0  1  -1  1  0  -1  0  0       1  0 -1   1 -1  0   1  0  0
                       0 -1  0   1 -1  0   0 -1  1       0  1  0  -1  1  0   0  1 -1
                       1  0 -1   0  0 -1   0  1 -1      -1  0  1   0  0  1   0 -1  1
                       0  1  0   0  0  1   1  0  0       0 -1  0   0  0 -1  -1  0  0
                       1  0 -1   0  1 -1   0  0 -1      -1  0  1   0 -1  1   0  0  1
                       0 -1  0   0 -1  1   1 -1  0       0  1  0   0  1 -1  -1  1  0
                      -1  0  1  -1  0  0  -1  1  0       1  0 -1   1  0  0   1 -1  0
                       0  1  0   1  0  0   0  0  1       0 -1  0  -1  0  0   0  0 -1
                       0  0 -1   0  1 -1   1  0 -1       0  0  1   0 -1  1  -1  0  1
                       1 -1  0   0 -1  1   0 -1  0      -1  1  0   0  1 -1   0  1  0
                       0  0  1   1  0  0   0  1  0       0  0 -1  -1  0  0   0 -1  0
                      -1  1  0  -1  0  0  -1  0  1       1 -1  0   1  0  0   1  0 -1
                       0  0  1   0  1  0   1  0  0       0  0 -1   0 -1  0  -1  0  0
                       1 -1  0   0 -1  0   0 -1  1      -1  1  0   0  1  0   0  1 -1
                       0  0 -1   1  0 -1   0  1 -1       0  0  1  -1  0  1   0 -1  1
                      -1  1  0  -1  0  1  -1  0  0       1 -1  0   1  0 -1   1  0  0
           timopt          -1
            tnons      0.0000000  0.0000000  0.0000000     0.2500000  0.2500000  0.2500000
                       0.0000000  0.0000000  0.0000000     0.2500000  0.2500000  0.2500000
                       0.0000000  0.0000000  0.0000000     0.2500000  0.2500000  0.2500000
                       0.0000000  0.0000000  0.0000000     0.2500000  0.2500000  0.2500000
                       0.0000000  0.0000000  0.0000000     0.2500000  0.2500000  0.2500000
                       0.0000000  0.0000000  0.0000000     0.2500000  0.2500000  0.2500000
                       0.0000000  0.0000000  0.0000000     0.2500000  0.2500000  0.2500000
                       0.0000000  0.0000000  0.0000000     0.2500000  0.2500000  0.2500000
                       0.0000000  0.0000000  0.0000000     0.2500000  0.2500000  0.2500000
                       0.0000000  0.0000000  0.0000000     0.2500000  0.2500000  0.2500000
                       0.0000000  0.0000000  0.0000000     0.2500000  0.2500000  0.2500000
                       0.0000000  0.0000000  0.0000000     0.2500000  0.2500000  0.2500000
                       0.0000000  0.0000000  0.0000000     0.2500000  0.2500000  0.2500000
                       0.0000000  0.0000000  0.0000000     0.2500000  0.2500000  0.2500000
                       0.0000000  0.0000000  0.0000000     0.2500000  0.2500000  0.2500000
                       0.0000000  0.0000000  0.0000000     0.2500000  0.2500000  0.2500000
                       0.0000000  0.0000000  0.0000000     0.2500000  0.2500000  0.2500000
                       0.0000000  0.0000000  0.0000000     0.2500000  0.2500000  0.2500000
                       0.0000000  0.0000000  0.0000000     0.2500000  0.2500000  0.2500000
                       0.0000000  0.0000000  0.0000000     0.2500000  0.2500000  0.2500000
                       0.0000000  0.0000000  0.0000000     0.2500000  0.2500000  0.2500000
                       0.0000000  0.0000000  0.0000000     0.2500000  0.2500000  0.2500000
                       0.0000000  0.0000000  0.0000000     0.2500000  0.2500000  0.2500000
                       0.0000000  0.0000000  0.0000000     0.2500000  0.2500000  0.2500000
            typat      1  1
              wtk        0.00195    0.01563    0.01563    0.01563    0.00781    0.01172
                         0.04688    0.04688    0.04688    0.04688    0.04688    0.02344
                         0.01172    0.04688    0.04688    0.04688    0.02344    0.01172
                         0.04688    0.02344    0.00586    0.04688    0.09375    0.04688
                         0.04688    0.09375    0.04688    0.02344    0.01172
           xangst      0.0000000000E+00  0.0000000000E+00  0.0000000000E+00
                       1.3573395400E+00  1.3573395400E+00  1.3573395400E+00
            xcart      0.0000000000E+00  0.0000000000E+00  0.0000000000E+00
                       2.5650000000E+00  2.5650000000E+00  2.5650000000E+00
             xred      0.0000000000E+00  0.0000000000E+00  0.0000000000E+00
                       2.5000000000E-01  2.5000000000E-01  2.5000000000E-01
            znucl       14.00000

================================================================================

 Test the timer : 
  a combined call timab(*,1,tsec) + timab(*,2,tsec) is 
- CPU time =    6.1104E-07 sec,    Wall time =    6.1078E-07 sec

- Total cpu        time (s,m,h):     369540.7     6159.01    102.650
- Total wall clock time (s,m,h):     370022.5     6167.04    102.784
-
- For major independent code sections, cpu and wall times (sec),
-  as well as % of the time and number of calls for node 0
-
-<BEGIN_TIMER mpi_nprocs = 256, omp_nthreads = 1, mpi_rank = 0>
- cpu_time =         1442.5, wall_time =         1445.4
-
- routine                            cpu     %          wall     %      number of calls Gflops    Speedup Efficacity
-                                                                        (-1=no count)
- sigma/=fourdp                   143.463   0.0       144.346   0.0              1      -1.00        0.99       0.99
- wfd_read_wfk                      1.335   0.0         1.345   0.0              2      -1.00        0.99       0.99
- others (153)                      0.645   0.0         0.649   0.0             -1      -1.00        0.99       0.99
-<END_TIMER>
-
- subtotal                        145.442   0.0       146.340   0.0                                  0.99       0.99

- For major independent code sections, cpu and wall times (sec),
- as well as % of the total time and number of calls 

-<BEGIN_TIMER mpi_nprocs = 256, omp_nthreads = 1, mpi_rank = world>
- cpu_time =      369540.7, wall_time =      370022.5
-
- routine                            cpu     %          wall     %      number of calls Gflops    Speedup Efficacity
-                                                                        (-1=no count)
- sigma/=fourdp                 36478.659   9.9     36907.520  10.0            256      -1.00        0.99       0.99
- wfd_read_wfk                    345.595   0.1       345.766   0.1            512      -1.00        1.00       1.00
- pspini                           62.054   0.0        64.883   0.0            512      -1.00        0.96       0.96
- timing timab                     29.754   0.0        29.756   0.0           3584      -1.00        1.00       1.00
- abinit(2)                        16.546   0.0        16.906   0.0            256      -1.00        0.98       0.98
- invars2                          12.615   0.0        12.618   0.0            512      -1.00        1.00       1.00
- ewald                             4.977   0.0         4.978   0.0            512      -1.00        1.00       1.00
- xc:pot/=fourdp                    4.578   0.0         4.604   0.0            768      -1.00        0.99       0.99
- fourdp                            3.961   0.0         3.970   0.0           8704      -1.00        1.00       1.00
- mkffnl                            2.609   0.0         2.552   0.0           7424      -1.00        1.02       1.02
- mkcore                            1.035   0.0         1.037   0.0            512      -1.00        1.00       1.00
- kpgsph                            0.686   0.0         0.684   0.0          76858      -1.00        1.00       1.00
- others (143)                      0.328   0.0         0.327   0.0             -1      -1.00        1.00       1.00
-<END_TIMER>

- subtotal                      36963.397  10.0     37395.601  10.1                                  0.99       0.99

 Partitioning of abinit
- abinit                       369540.686 100.0    370022.511 100.0            256                   1.00       1.00
 
- driver                       369418.293 100.0    369894.287 100.0            256                   1.00       1.00

- subtotal                     369540.686 100.0    370022.511 100.0                                  1.00       1.00

 Partitioning of driver
- driver                       369418.293 100.0    369894.287 100.0            256                   1.00       1.00
 
- screening                    332866.575  90.1    332913.450  90.0            256                   1.00       1.00
- sigma                         36478.741   9.9     36907.602  10.0            256                   0.99       0.99

- subtotal                     369418.293 100.0    369894.287 100.0                                  1.00       1.00

 Partitioning of screening
- screening                    332866.575  90.1    332913.450  90.0            256                   1.00       1.00
 
- screening(init1)                246.929   0.1       250.102   0.1            256                   0.99       0.99
- screening(wfs)                  215.826   0.1       216.062   0.1            256                   1.00       1.00
- screening(cchi0q0)             1804.586   0.5      1805.081   0.5            256                   1.00       1.00
- screening(cchi0)             328842.521  89.0    328881.367  88.9           7168                   1.00       1.00
- screening(q-loop,end)          1674.270   0.5      1674.653   0.5           7424                   1.00       1.00

- subtotal                     332863.245  90.1    332910.171  90.0                                  1.00       1.00

 Partitioning of sigma
- sigma                         36478.741   9.9     36907.602  10.0            256                   0.99       0.99
 
- setup_sigma                     130.861   0.0       131.292   0.0            256                   1.00       1.00
- sigma(rdkss)                    152.576   0.0       152.595   0.0            256                   1.00       1.00
- sigma(getW)                     541.406   0.1       885.914   0.2            256                   0.61       0.61
- sigma(calc_sigx_me)             791.566   0.2       816.778   0.2            256                   0.97       0.97
- sigma(calc_sigc_me)           34716.813   9.4     34748.003   9.4            512                   1.00       1.00

- subtotal                      36438.351   9.9     36843.577  10.0                                  0.99       0.99

 Partitioning of calc_sigc_me
- calc_sigc_me                  34716.812   9.4     34748.002   9.4            512                   1.00       1.00
 
- calc_sigc_me(Init)              122.156   0.0       122.251   0.0            512                   1.00       1.00
- calc_sigc_me(Init q)          32633.637   8.8     32660.427   8.8          22528                   1.00       1.00
- calc_sigc_me(loop)             1891.243   0.5      1895.336   0.5          22528                   1.00       1.00

- subtotal                      34695.120   9.4     34726.198   9.4                                  1.00       1.00

 Partitioning of  fourdp (upwards partitioning)
- fourdp                            3.961   0.0         3.970   0.0           8704                   1.00       1.00
 

- subtotal                          3.961   0.0         3.970   0.0                                  1.00       1.00
-
-Synchronisation (=leave_test) and MPI calls 
- communic.MPI                      2.096   0.0         2.136   0.0            256                   0.98       0.98
-
- subtotal                          0.000   0.0         0.000   0.0                                  0.00       0.00

 Additional information
- timana(1)                         0.343   0.0         0.356   0.0            256                   0.96       0.96
- total timab                      30.285   0.0        30.287   0.0       50701818                   1.00       1.00
- xc:fourdp                         2.036   0.0         2.032   0.0           6144                   1.00       1.00
- calc_sigc_me(1)            58122922.737****** 110270612.118******          42240                   0.53       0.53
- calc_sigc_me(rho_tw_g)          144.349   0.0       145.794   0.0          42240                   0.99       0.99
- calc_sigc_me(2)                   0.536   0.0         0.541   0.0         267360                   0.99       0.99
- calc_sigc_me(sigma_me)            1.587   0.0         1.619   0.0         267360                   0.98       0.98
- calc_sigc_me(ac_lrk_appl       1727.520   0.5      1728.317   0.5          42240                   1.00       1.00
- calc_sigc_me(ac_lrk_diag      31084.878   8.4     31109.986   8.4          22528                   1.00       1.00
- cchi0                        328842.254  89.0    328881.133  88.9           7168                   1.00       1.00

 timana : in multi dataset mode, the more detailed analysis is not done.

================================================================================

 Suggested references for the acknowledgment of ABINIT usage.

 The users of ABINIT have little formal obligations with respect to the ABINIT group
 (those specified in the GNU General Public License, http://www.gnu.org/copyleft/gpl.txt).
 However, it is common practice in the scientific literature,
 to acknowledge the efforts of people that have made the research possible.
 In this spirit, please find below suggested citations of work written by ABINIT developers,
 corresponding to implementations inside of ABINIT that you have used in the present run.
 Note also that it will be of great value to readers of publications presenting these results,
 to read papers enabling them to understand the theoretical formalism and details
 of the ABINIT implementation.
 For information on why they are suggested, see also https://docs.abinit.org/theory/acknowledgments.
-
- [1] The Abinit project: Impact, environment and recent developments.
- Computer Phys. Comm. 248, 107042 (2020).
- X.Gonze, B. Amadon, G. Antonius, F.Arnardi, L.Baguet, J.-M.Beuken,
- J.Bieder, F.Bottin, J.Bouchet, E.Bousquet, N.Brouwer, F.Bruneval,
- G.Brunin, T.Cavignac, J.-B. Charraud, Wei Chen, M.Cote, S.Cottenier,
- J.Denier, G.Geneste, Ph.Ghosez, M.Giantomassi, Y.Gillet, O.Gingras,
- D.R.Hamann, G.Hautier, Xu He, N.Helbig, N.Holzwarth, Y.Jia, F.Jollet,
- W.Lafargue-Dit-Hauret, K.Lejaeghere, M.A.L.Marques, A.Martin, C.Martins,
- H.P.C. Miranda, F.Naccarato, K. Persson, G.Petretto, V.Planes, Y.Pouillon,
- S.Prokhorenko, F.Ricci, G.-M.Rignanese, A.H.Romero, M.M.Schmitt, M.Torrent,
- M.J.van Setten, B.Van Troeye, M.J.Verstraete, G.Zerah and J.W.Zwanzig
- Comment: the fifth generic paper describing the ABINIT project.
- Note that a version of this paper, that is not formatted for Computer Phys. Comm. 
- is available at https://www.abinit.org/sites/default/files/ABINIT20.pdf .
- The licence allows the authors to put it on the Web.
- DOI and bibtex: see https://docs.abinit.org/theory/bibliography/#gonze2020
-
- [2] Optimized norm-conserving Vanderbilt pseudopotentials.
- D.R. Hamann, Phys. Rev. B 88, 085117 (2013).
- Comment: Some pseudopotential generated using the ONCVPSP code were used.
- DOI and bibtex: see https://docs.abinit.org/theory/bibliography/#hamann2013
-
- [3] ABINIT: Overview, and focus on selected capabilities
- J. Chem. Phys. 152, 124102 (2020).
- A. Romero, D.C. Allan, B. Amadon, G. Antonius, T. Applencourt, L.Baguet,
- J.Bieder, F.Bottin, J.Bouchet, E.Bousquet, F.Bruneval,
- G.Brunin, D.Caliste, M.Cote,
- J.Denier, C. Dreyer, Ph.Ghosez, M.Giantomassi, Y.Gillet, O.Gingras,
- D.R.Hamann, G.Hautier, F.Jollet, G. Jomard,
- A.Martin, 
- H.P.C. Miranda, F.Naccarato, G.Petretto, N.A. Pike, V.Planes,
- S.Prokhorenko, T. Rangel, F.Ricci, G.-M.Rignanese, M.Royo, M.Stengel, M.Torrent,
- M.J.van Setten, B.Van Troeye, M.J.Verstraete, J.Wiktor, J.W.Zwanziger, and X.Gonze.
- Comment: a global overview of ABINIT, with focus on selected capabilities .
- Note that a version of this paper, that is not formatted for J. Chem. Phys 
- is available at https://www.abinit.org/sites/default/files/ABINIT20_JPC.pdf .
- The licence allows the authors to put it on the Web.
- DOI and bibtex: see https://docs.abinit.org/theory/bibliography/#romero2020
-
- [4] Recent developments in the ABINIT software package.
- Computer Phys. Comm. 205, 106 (2016).
- X.Gonze, F.Jollet, F.Abreu Araujo, D.Adams, B.Amadon, T.Applencourt,
- C.Audouze, J.-M.Beuken, J.Bieder, A.Bokhanchuk, E.Bousquet, F.Bruneval
- D.Caliste, M.Cote, F.Dahm, F.Da Pieve, M.Delaveau, M.Di Gennaro,
- B.Dorado, C.Espejo, G.Geneste, L.Genovese, A.Gerossier, M.Giantomassi,
- Y.Gillet, D.R.Hamann, L.He, G.Jomard, J.Laflamme Janssen, S.Le Roux,
- A.Levitt, A.Lherbier, F.Liu, I.Lukacevic, A.Martin, C.Martins,
- M.J.T.Oliveira, S.Ponce, Y.Pouillon, T.Rangel, G.-M.Rignanese,
- A.H.Romero, B.Rousseau, O.Rubel, A.A.Shukri, M.Stankovski, M.Torrent,
- M.J.Van Setten, B.Van Troeye, M.J.Verstraete, D.Waroquier, J.Wiktor,
- B.Xu, A.Zhou, J.W.Zwanziger.
- Comment: the fourth generic paper describing the ABINIT project.
- Note that a version of this paper, that is not formatted for Computer Phys. Comm. 
- is available at https://www.abinit.org/sites/default/files/ABINIT16.pdf .
- The licence allows the authors to put it on the Web.
- DOI and bibtex: see https://docs.abinit.org/theory/bibliography/#gonze2016
-
- And optionally:
-
- [5] ABINIT: First-principles approach of materials and nanosystem properties.
- Computer Phys. Comm. 180, 2582-2615 (2009).
- X. Gonze, B. Amadon, P.-M. Anglade, J.-M. Beuken, F. Bottin, P. Boulanger, F. Bruneval,
- D. Caliste, R. Caracas, M. Cote, T. Deutsch, L. Genovese, Ph. Ghosez, M. Giantomassi
- S. Goedecker, D.R. Hamann, P. Hermet, F. Jollet, G. Jomard, S. Leroux, M. Mancini, S. Mazevet,
- M.J.T. Oliveira, G. Onida, Y. Pouillon, T. Rangel, G.-M. Rignanese, D. Sangalli, R. Shaltaf,
- M. Torrent, M.J. Verstraete, G. Zerah, J.W. Zwanziger
- Comment: the third generic paper describing the ABINIT project.
- Note that a version of this paper, that is not formatted for Computer Phys. Comm. 
- is available at https://www.abinit.org/sites/default/files/ABINIT_CPC_v10.pdf .
- The licence allows the authors to put it on the Web.
- DOI and bibtex: see https://docs.abinit.org/theory/bibliography/#gonze2009
-
- Proc.   0 individual time (sec): cpu=       1442.5  wall=       1445.5

================================================================================

 Calculation completed.
.Delivered   0 WARNINGs and   0 COMMENTs to log file.
+Overall time at end (sec) : cpu=     369558.5  wall=     370040.5
