
.Version 9.9.2 of ABINIT 
.(MPI version, prepared for a x86_64_linux_gnu11.2 computer) 

.Copyright (C) 1998-2022 ABINIT group . 
 ABINIT comes with ABSOLUTELY NO WARRANTY.
 It is free software, and you are welcome to redistribute it
 under certain conditions (GNU General Public License,
 see ~abinit/COPYING or http://www.gnu.org/copyleft/gpl.txt).

 ABINIT is a project of the Universite Catholique de Louvain,
 Corning Inc. and other collaborators, see ~abinit/doc/developers/contributors.txt .
 Please read https://docs.abinit.org/theory/acknowledgments for suggested
 acknowledgments of the ABINIT effort.
 For more information, see https://www.abinit.org .

.Starting date : Thu 16 Feb 2023.
- ( at 21h57 )
  
- input  file    -> run.abi
- output file    -> run.abo
- root for input  files -> ../indata_ac
- root for output files -> outdata_ac


 DATASET    1 : space group Fd -3 m (#227); Bravais cF (face-center cubic)
================================================================================
 Values of the parameters that define the memory need for DATASET  1.
     intxc =       0    ionmov =       0      iscf =       7    lmnmax =       6
     lnmax =       6     mgfft =      30  mpssoang =       3    mqgrid =    3001
     natom =       2  nloc_mem =       1    nspden =       1   nspinor =       1
    nsppol =       1      nsym =      48    n1xccc =    2501    ntypat =       1
    occopt =       1   xclevel =       2
-    mband =         480        mffmem =           1         mkmem =           1
       mpw =         995          nfft =       27000          nkpt =          29
================================================================================
P This job should need less than                      23.995 Mbytes of memory.
  Rough estimation (10% accuracy) of disk space for files :
_ WF disk file :    211.342 Mbytes ; DEN or POT disk file :      0.208 Mbytes.
================================================================================


 DATASET    2 : space group Fd -3 m (#227); Bravais cF (face-center cubic)
================================================================================
 Values of the parameters that define the memory need for DATASET  2.
     intxc =       0    ionmov =       0      iscf =       7    lmnmax =       6
     lnmax =       6     mgfft =      30  mpssoang =       3    mqgrid =    3001
     natom =       2  nloc_mem =       1    nspden =       1   nspinor =       1
    nsppol =       1      nsym =      48    n1xccc =    2501    ntypat =       1
    occopt =       1   xclevel =       2
-    mband =         480        mffmem =           1         mkmem =           1
       mpw =         995          nfft =       27000          nkpt =          29
================================================================================
P This job should need less than                      23.995 Mbytes of memory.
  Rough estimation (10% accuracy) of disk space for files :
_ WF disk file :    211.342 Mbytes ; DEN or POT disk file :      0.208 Mbytes.
================================================================================

--------------------------------------------------------------------------------
------------- Echo of variables that govern the present computation ------------
--------------------------------------------------------------------------------
-
- outvars: echo of selected default values                                      
-   iomode0 =  0 , fftalg0 =312 , wfoptalg0 =  0
-
- outvars: echo of global parameters not present in the input file              
-  max_nthreads =    0
-
 -outvars: echo values of preprocessed input variables --------
            acell      1.0260000000E+01  1.0260000000E+01  1.0260000000E+01 Bohr
              amu      2.80855000E+01
             bdgw           1       5       1       5
           diemac      1.20000000E+01
             ecut      1.80000000E+01 Hartree
          ecuteps      1.20000000E+01 Hartree
         ecutsigx      3.60000000E+01 Hartree
          ecutwfn      1.80000000E+01 Hartree
-          fftalg         312
           getscr1          0
           getscr2         -1
        gwcalctyp           1
           istwfk        1    0    0    0    1    0    0    0    0    0
                         0    0    0    0    0    0    0    0    0    0
                         1    0    0    0    0    0    0    0    0
              ixc          11
           jdtset        1    2
              kpt      0.00000000E+00  0.00000000E+00  0.00000000E+00
                       1.25000000E-01  0.00000000E+00  0.00000000E+00
                       2.50000000E-01  0.00000000E+00  0.00000000E+00
                       3.75000000E-01  0.00000000E+00  0.00000000E+00
                       5.00000000E-01  0.00000000E+00  0.00000000E+00
                       1.25000000E-01  1.25000000E-01  0.00000000E+00
                       2.50000000E-01  1.25000000E-01  0.00000000E+00
                       3.75000000E-01  1.25000000E-01  0.00000000E+00
                       5.00000000E-01  1.25000000E-01  0.00000000E+00
                      -3.75000000E-01  1.25000000E-01  0.00000000E+00
                      -2.50000000E-01  1.25000000E-01  0.00000000E+00
                      -1.25000000E-01  1.25000000E-01  0.00000000E+00
                       2.50000000E-01  2.50000000E-01  0.00000000E+00
                       3.75000000E-01  2.50000000E-01  0.00000000E+00
                       5.00000000E-01  2.50000000E-01  0.00000000E+00
                      -3.75000000E-01  2.50000000E-01  0.00000000E+00
                      -2.50000000E-01  2.50000000E-01  0.00000000E+00
                       3.75000000E-01  3.75000000E-01  0.00000000E+00
                       5.00000000E-01  3.75000000E-01  0.00000000E+00
                      -3.75000000E-01  3.75000000E-01  0.00000000E+00
                       5.00000000E-01  5.00000000E-01  0.00000000E+00
                       3.75000000E-01  2.50000000E-01  1.25000000E-01
                       5.00000000E-01  2.50000000E-01  1.25000000E-01
                      -3.75000000E-01  2.50000000E-01  1.25000000E-01
                       5.00000000E-01  3.75000000E-01  1.25000000E-01
                      -3.75000000E-01  3.75000000E-01  1.25000000E-01
                      -2.50000000E-01  3.75000000E-01  1.25000000E-01
                      -3.75000000E-01  5.00000000E-01  1.25000000E-01
                      -2.50000000E-01  5.00000000E-01  2.50000000E-01
            kptgw      0.00000000E+00  0.00000000E+00  0.00000000E+00
                       5.00000000E-01  5.00000000E-01  0.00000000E+00
         kptrlatt        8    0    0      0    8    0      0    0    8
          kptrlen      5.80393246E+01
P           mkmem           1
            natom           2
            nband         480
           ndtset           2
          nfreqim          16
            ngfft          30      30      30
             nkpt          29
           nkptgw           2
         nomegasi          16
           npweps         531
          npwsigx        2733
           npwwfn         941
            nstep          50
             nsym          48
           ntypat           1
              occ      2.000000  2.000000  2.000000  2.000000  0.000000  0.000000
                       0.000000  0.000000  0.000000  0.000000  0.000000  0.000000
                       0.000000  0.000000  0.000000  0.000000  0.000000  0.000000
                       0.000000  0.000000  0.000000  0.000000  0.000000  0.000000
                       0.000000  0.000000  0.000000  0.000000  0.000000  0.000000
                       0.000000  0.000000  0.000000  0.000000  0.000000  0.000000
                       0.000000  0.000000  0.000000  0.000000  0.000000  0.000000
                       0.000000  0.000000  0.000000  0.000000  0.000000  0.000000
                       0.000000  0.000000  0.000000  0.000000  0.000000  0.000000
                       0.000000  0.000000  0.000000  0.000000  0.000000  0.000000
                       0.000000  0.000000  0.000000  0.000000  0.000000  0.000000
                       0.000000  0.000000  0.000000  0.000000  0.000000  0.000000
                       0.000000  0.000000  0.000000  0.000000  0.000000  0.000000
                       0.000000  0.000000  0.000000  0.000000  0.000000  0.000000
                       0.000000  0.000000  0.000000  0.000000  0.000000  0.000000
                       0.000000  0.000000  0.000000  0.000000  0.000000  0.000000
                       0.000000  0.000000  0.000000  0.000000  0.000000  0.000000
                       0.000000  0.000000  0.000000  0.000000  0.000000  0.000000
                       0.000000  0.000000  0.000000  0.000000  0.000000  0.000000
                       0.000000  0.000000  0.000000  0.000000  0.000000  0.000000
                       0.000000  0.000000  0.000000  0.000000  0.000000  0.000000
                       0.000000  0.000000  0.000000  0.000000  0.000000  0.000000
                       0.000000  0.000000  0.000000  0.000000  0.000000  0.000000
                       0.000000  0.000000  0.000000  0.000000  0.000000  0.000000
                       0.000000  0.000000  0.000000  0.000000  0.000000  0.000000
                       0.000000  0.000000  0.000000  0.000000  0.000000  0.000000
                       0.000000  0.000000  0.000000  0.000000  0.000000  0.000000
                       0.000000  0.000000  0.000000  0.000000  0.000000  0.000000
                       0.000000  0.000000  0.000000  0.000000  0.000000  0.000000
                       0.000000  0.000000  0.000000  0.000000  0.000000  0.000000
                       0.000000  0.000000  0.000000  0.000000  0.000000  0.000000
                       0.000000  0.000000  0.000000  0.000000  0.000000  0.000000
                       0.000000  0.000000  0.000000  0.000000  0.000000  0.000000
                       0.000000  0.000000  0.000000  0.000000  0.000000  0.000000
                       0.000000  0.000000  0.000000  0.000000  0.000000  0.000000
                       0.000000  0.000000  0.000000  0.000000  0.000000  0.000000
                       0.000000  0.000000  0.000000  0.000000  0.000000  0.000000
                       0.000000  0.000000  0.000000  0.000000  0.000000  0.000000
                       0.000000  0.000000  0.000000  0.000000  0.000000  0.000000
                       0.000000  0.000000  0.000000  0.000000  0.000000  0.000000
                       0.000000  0.000000  0.000000  0.000000  0.000000  0.000000
                       0.000000  0.000000  0.000000  0.000000  0.000000  0.000000
                       0.000000  0.000000  0.000000  0.000000  0.000000  0.000000
                       0.000000  0.000000  0.000000  0.000000  0.000000  0.000000
                       0.000000  0.000000  0.000000  0.000000  0.000000  0.000000
                       0.000000  0.000000  0.000000  0.000000  0.000000  0.000000
                       0.000000  0.000000  0.000000  0.000000  0.000000  0.000000
                       0.000000  0.000000  0.000000  0.000000  0.000000  0.000000
                       0.000000  0.000000  0.000000  0.000000  0.000000  0.000000
                       0.000000  0.000000  0.000000  0.000000  0.000000  0.000000
                       0.000000  0.000000  0.000000  0.000000  0.000000  0.000000
                       0.000000  0.000000  0.000000  0.000000  0.000000  0.000000
                       0.000000  0.000000  0.000000  0.000000  0.000000  0.000000
                       0.000000  0.000000  0.000000  0.000000  0.000000  0.000000
                       0.000000  0.000000  0.000000  0.000000  0.000000  0.000000
                       0.000000  0.000000  0.000000  0.000000  0.000000  0.000000
                       0.000000  0.000000  0.000000  0.000000  0.000000  0.000000
                       0.000000  0.000000  0.000000  0.000000  0.000000  0.000000
                       0.000000  0.000000  0.000000  0.000000  0.000000  0.000000
                       0.000000  0.000000  0.000000  0.000000  0.000000  0.000000
                       0.000000  0.000000  0.000000  0.000000  0.000000  0.000000
                       0.000000  0.000000  0.000000  0.000000  0.000000  0.000000
                       0.000000  0.000000  0.000000  0.000000  0.000000  0.000000
                       0.000000  0.000000  0.000000  0.000000  0.000000  0.000000
                       0.000000  0.000000  0.000000  0.000000  0.000000  0.000000
                       0.000000  0.000000  0.000000  0.000000  0.000000  0.000000
                       0.000000  0.000000  0.000000  0.000000  0.000000  0.000000
                       0.000000  0.000000  0.000000  0.000000  0.000000  0.000000
                       0.000000  0.000000  0.000000  0.000000  0.000000  0.000000
                       0.000000  0.000000  0.000000  0.000000  0.000000  0.000000
                       0.000000  0.000000  0.000000  0.000000  0.000000  0.000000
                       0.000000  0.000000  0.000000  0.000000  0.000000  0.000000
                       0.000000  0.000000  0.000000  0.000000  0.000000  0.000000
                       0.000000  0.000000  0.000000  0.000000  0.000000  0.000000
                       0.000000  0.000000  0.000000  0.000000  0.000000  0.000000
                       0.000000  0.000000  0.000000  0.000000  0.000000  0.000000
                       0.000000  0.000000  0.000000  0.000000  0.000000  0.000000
                       0.000000  0.000000  0.000000  0.000000  0.000000  0.000000
                       0.000000  0.000000  0.000000  0.000000  0.000000  0.000000
                       0.000000  0.000000  0.000000  0.000000  0.000000  0.000000
       omegasimax      5.87989206E-01 Hartree
        optdriver1          3
        optdriver2          4
            rprim      0.0000000000E+00  5.0000000000E-01  5.0000000000E-01
                       5.0000000000E-01  0.0000000000E+00  5.0000000000E-01
                       5.0000000000E-01  5.0000000000E-01  0.0000000000E+00
          spgroup         227
           symrel      1  0  0   0  1  0   0  0  1      -1  0  0   0 -1  0   0  0 -1
                       0 -1  1   0 -1  0   1 -1  0       0  1 -1   0  1  0  -1  1  0
                      -1  0  0  -1  0  1  -1  1  0       1  0  0   1  0 -1   1 -1  0
                       0  1 -1   1  0 -1   0  0 -1       0 -1  1  -1  0  1   0  0  1
                      -1  0  0  -1  1  0  -1  0  1       1  0  0   1 -1  0   1  0 -1
                       0 -1  1   1 -1  0   0 -1  0       0  1 -1  -1  1  0   0  1  0
                       1  0  0   0  0  1   0  1  0      -1  0  0   0  0 -1   0 -1  0
                       0  1 -1   0  0 -1   1  0 -1       0 -1  1   0  0  1  -1  0  1
                      -1  0  1  -1  1  0  -1  0  0       1  0 -1   1 -1  0   1  0  0
                       0 -1  0   1 -1  0   0 -1  1       0  1  0  -1  1  0   0  1 -1
                       1  0 -1   0  0 -1   0  1 -1      -1  0  1   0  0  1   0 -1  1
                       0  1  0   0  0  1   1  0  0       0 -1  0   0  0 -1  -1  0  0
                       1  0 -1   0  1 -1   0  0 -1      -1  0  1   0 -1  1   0  0  1
                       0 -1  0   0 -1  1   1 -1  0       0  1  0   0  1 -1  -1  1  0
                      -1  0  1  -1  0  0  -1  1  0       1  0 -1   1  0  0   1 -1  0
                       0  1  0   1  0  0   0  0  1       0 -1  0  -1  0  0   0  0 -1
                       0  0 -1   0  1 -1   1  0 -1       0  0  1   0 -1  1  -1  0  1
                       1 -1  0   0 -1  1   0 -1  0      -1  1  0   0  1 -1   0  1  0
                       0  0  1   1  0  0   0  1  0       0  0 -1  -1  0  0   0 -1  0
                      -1  1  0  -1  0  0  -1  0  1       1 -1  0   1  0  0   1  0 -1
                       0  0  1   0  1  0   1  0  0       0  0 -1   0 -1  0  -1  0  0
                       1 -1  0   0 -1  0   0 -1  1      -1  1  0   0  1  0   0  1 -1
                       0  0 -1   1  0 -1   0  1 -1       0  0  1  -1  0  1   0 -1  1
                      -1  1  0  -1  0  1  -1  0  0       1 -1  0   1  0 -1   1  0  0
           timopt          -1
            tnons      0.0000000  0.0000000  0.0000000     0.2500000  0.2500000  0.2500000
                       0.0000000  0.0000000  0.0000000     0.2500000  0.2500000  0.2500000
                       0.0000000  0.0000000  0.0000000     0.2500000  0.2500000  0.2500000
                       0.0000000  0.0000000  0.0000000     0.2500000  0.2500000  0.2500000
                       0.0000000  0.0000000  0.0000000     0.2500000  0.2500000  0.2500000
                       0.0000000  0.0000000  0.0000000     0.2500000  0.2500000  0.2500000
                       0.0000000  0.0000000  0.0000000     0.2500000  0.2500000  0.2500000
                       0.0000000  0.0000000  0.0000000     0.2500000  0.2500000  0.2500000
                       0.0000000  0.0000000  0.0000000     0.2500000  0.2500000  0.2500000
                       0.0000000  0.0000000  0.0000000     0.2500000  0.2500000  0.2500000
                       0.0000000  0.0000000  0.0000000     0.2500000  0.2500000  0.2500000
                       0.0000000  0.0000000  0.0000000     0.2500000  0.2500000  0.2500000
                       0.0000000  0.0000000  0.0000000     0.2500000  0.2500000  0.2500000
                       0.0000000  0.0000000  0.0000000     0.2500000  0.2500000  0.2500000
                       0.0000000  0.0000000  0.0000000     0.2500000  0.2500000  0.2500000
                       0.0000000  0.0000000  0.0000000     0.2500000  0.2500000  0.2500000
                       0.0000000  0.0000000  0.0000000     0.2500000  0.2500000  0.2500000
                       0.0000000  0.0000000  0.0000000     0.2500000  0.2500000  0.2500000
                       0.0000000  0.0000000  0.0000000     0.2500000  0.2500000  0.2500000
                       0.0000000  0.0000000  0.0000000     0.2500000  0.2500000  0.2500000
                       0.0000000  0.0000000  0.0000000     0.2500000  0.2500000  0.2500000
                       0.0000000  0.0000000  0.0000000     0.2500000  0.2500000  0.2500000
                       0.0000000  0.0000000  0.0000000     0.2500000  0.2500000  0.2500000
                       0.0000000  0.0000000  0.0000000     0.2500000  0.2500000  0.2500000
            typat      1  1
              wtk        0.00195    0.01563    0.01563    0.01563    0.00781    0.01172
                         0.04688    0.04688    0.04688    0.04688    0.04688    0.02344
                         0.01172    0.04688    0.04688    0.04688    0.02344    0.01172
                         0.04688    0.02344    0.00586    0.04688    0.09375    0.04688
                         0.04688    0.09375    0.04688    0.02344    0.01172
           xangst      0.0000000000E+00  0.0000000000E+00  0.0000000000E+00
                       1.3573395400E+00  1.3573395400E+00  1.3573395400E+00
            xcart      0.0000000000E+00  0.0000000000E+00  0.0000000000E+00
                       2.5650000000E+00  2.5650000000E+00  2.5650000000E+00
             xred      0.0000000000E+00  0.0000000000E+00  0.0000000000E+00
                       2.5000000000E-01  2.5000000000E-01  2.5000000000E-01
            znucl       14.00000

================================================================================

 chkinp: Checking input parameters for consistency, jdtset=   1.

 chkinp: Checking input parameters for consistency, jdtset=   2.

================================================================================
== DATASET  1 ==================================================================
-   mpi_nproc: 256, omp_nthreads: -1 (-1 if OMP is not activated)


--- !DatasetInfo
iteration_state: {dtset: 1, }
dimensions: {natom: 2, nkpt: 29, mband: 480, nsppol: 1, nspinor: 1, nspden: 1, mpw: 995, }
cutoff_energies: {ecut:  18.0, pawecutdg:  -1.0, }
electrons: {nelect:   8.00000000E+00, charge:   0.00000000E+00, occopt:   1.00000000E+00, tsmear:   1.00000000E-02, }
meta: {optdriver: 3, gwcalctyp: 1, }
...

 mkfilename: getwfk from: ../outdata_gs_DS2_WFK

 Exchange-correlation functional for the present dataset will be:
  GGA: Perdew-Burke-Ernzerhof functional - ixc=11
 Citation for XC functional:
  J.P.Perdew, K.Burke, M.Ernzerhof, PRL 77, 3865 (1996)

 SCREENING: Calculation of the susceptibility and dielectric matrices 

 Based on a program developped by R.W. Godby, V. Olevano, G. Onida, and L. Reining.
 Incorporated in ABINIT by V. Olevano, G.-M. Rignanese, and M. Torrent.
.Using single precision arithmetic ; gwpc =  4

 Real(R)+Recip(G) space primitive vectors, cartesian coordinates (Bohr,Bohr^-1):
 R(1)=  0.0000000  5.1300000  5.1300000  G(1)= -0.0974659  0.0974659  0.0974659
 R(2)=  5.1300000  0.0000000  5.1300000  G(2)=  0.0974659 -0.0974659  0.0974659
 R(3)=  5.1300000  5.1300000  0.0000000  G(3)=  0.0974659  0.0974659 -0.0974659
 Unit cell volume ucvol=  2.7001139E+02 bohr^3
 Angles (23,13,12)=  6.00000000E+01  6.00000000E+01  6.00000000E+01 degrees

--- Pseudopotential description ------------------------------------------------
- pspini: atom type   1  psp file is ../Si.psp8
- pspatm: opening atomic psp file    ../Si.psp8
- Si    ONCVPSP-3.2.3.1  r_core=   1.60303   1.72197   1.91712
- 14.00000   4.00000    170510                znucl, zion, pspdat
    8   11    2    4       600   0.00000      pspcod,pspxc,lmax,lloc,mmax,r2well
    5.99000000000000    4.00000000000000    0.00000000000000   rchrg,fchrg,qchrg
     nproj     2     2     2
     extension_switch     1
  pspatm : epsatm=    9.34321699
         --- l  ekb(1:nproj) -->
             0    5.168965    0.829883
             1    2.571282    0.578307
             2   -2.427311   -0.488097
 pspatm: atomic psp has been read  and splines computed

   1.49491472E+02                                ecore*ucvol(ha*bohr**3)
--------------------------------------------------------------------------------

 ==== K-mesh for the wavefunctions ====
 Number of points in the irreducible wedge :    29
 Reduced coordinates and weights : 

     1)     0.00000000E+00  0.00000000E+00  0.00000000E+00       0.00195
     2)     1.25000000E-01  0.00000000E+00  0.00000000E+00       0.01563
     3)     2.50000000E-01  0.00000000E+00  0.00000000E+00       0.01563
     4)     3.75000000E-01  0.00000000E+00  0.00000000E+00       0.01563
     5)     5.00000000E-01  0.00000000E+00  0.00000000E+00       0.00781
     6)     1.25000000E-01  1.25000000E-01  0.00000000E+00       0.01172
     7)     2.50000000E-01  1.25000000E-01  0.00000000E+00       0.04688
     8)     3.75000000E-01  1.25000000E-01  0.00000000E+00       0.04688
     9)     5.00000000E-01  1.25000000E-01  0.00000000E+00       0.04688
    10)    -3.75000000E-01  1.25000000E-01  0.00000000E+00       0.04688
    11)    -2.50000000E-01  1.25000000E-01  0.00000000E+00       0.04688
    12)    -1.25000000E-01  1.25000000E-01  0.00000000E+00       0.02344
    13)     2.50000000E-01  2.50000000E-01  0.00000000E+00       0.01172
    14)     3.75000000E-01  2.50000000E-01  0.00000000E+00       0.04688
    15)     5.00000000E-01  2.50000000E-01  0.00000000E+00       0.04688
    16)    -3.75000000E-01  2.50000000E-01  0.00000000E+00       0.04688
    17)    -2.50000000E-01  2.50000000E-01  0.00000000E+00       0.02344
    18)     3.75000000E-01  3.75000000E-01  0.00000000E+00       0.01172
    19)     5.00000000E-01  3.75000000E-01  0.00000000E+00       0.04688
    20)    -3.75000000E-01  3.75000000E-01  0.00000000E+00       0.02344
    21)     5.00000000E-01  5.00000000E-01  0.00000000E+00       0.00586
    22)     3.75000000E-01  2.50000000E-01  1.25000000E-01       0.04688
    23)     5.00000000E-01  2.50000000E-01  1.25000000E-01       0.09375
    24)    -3.75000000E-01  2.50000000E-01  1.25000000E-01       0.04688
    25)     5.00000000E-01  3.75000000E-01  1.25000000E-01       0.04688
    26)    -3.75000000E-01  3.75000000E-01  1.25000000E-01       0.09375
    27)    -2.50000000E-01  3.75000000E-01  1.25000000E-01       0.04688
    28)    -3.75000000E-01  5.00000000E-01  1.25000000E-01       0.02344
    29)    -2.50000000E-01  5.00000000E-01  2.50000000E-01       0.01172

 Together with 48 symmetry operations and time-reversal symmetry 
 yields   512 points in the full Brillouin Zone.


 ==== Q-mesh for the screening function ====
 Number of points in the irreducible wedge :    29
 Reduced coordinates and weights : 

     1)     0.00000000E+00  0.00000000E+00  0.00000000E+00       0.00195
     2)     1.25000000E-01  0.00000000E+00  0.00000000E+00       0.01563
     3)     2.50000000E-01  0.00000000E+00  0.00000000E+00       0.01563
     4)     3.75000000E-01  0.00000000E+00  0.00000000E+00       0.01563
     5)     5.00000000E-01  0.00000000E+00  0.00000000E+00       0.00781
     6)     1.25000000E-01  1.25000000E-01  0.00000000E+00       0.01172
     7)     2.50000000E-01  1.25000000E-01  0.00000000E+00       0.04688
     8)     3.75000000E-01  1.25000000E-01  0.00000000E+00       0.04688
     9)     5.00000000E-01  1.25000000E-01  0.00000000E+00       0.04688
    10)    -3.75000000E-01  1.25000000E-01  0.00000000E+00       0.04688
    11)    -2.50000000E-01  1.25000000E-01  0.00000000E+00       0.04688
    12)    -1.25000000E-01  1.25000000E-01  0.00000000E+00       0.02344
    13)     2.50000000E-01  2.50000000E-01  0.00000000E+00       0.01172
    14)     3.75000000E-01  2.50000000E-01  0.00000000E+00       0.04688
    15)     5.00000000E-01  2.50000000E-01  0.00000000E+00       0.04688
    16)    -3.75000000E-01  2.50000000E-01  0.00000000E+00       0.04688
    17)    -2.50000000E-01  2.50000000E-01  0.00000000E+00       0.02344
    18)     3.75000000E-01  3.75000000E-01  0.00000000E+00       0.01172
    19)     5.00000000E-01  3.75000000E-01  0.00000000E+00       0.04688
    20)    -3.75000000E-01  3.75000000E-01  0.00000000E+00       0.02344
    21)     5.00000000E-01  5.00000000E-01  0.00000000E+00       0.00586
    22)     3.75000000E-01  2.50000000E-01  1.25000000E-01       0.04688
    23)     5.00000000E-01  2.50000000E-01  1.25000000E-01       0.09375
    24)    -3.75000000E-01  2.50000000E-01  1.25000000E-01       0.04688
    25)     5.00000000E-01  3.75000000E-01  1.25000000E-01       0.04688
    26)    -3.75000000E-01  3.75000000E-01  1.25000000E-01       0.09375
    27)    -2.50000000E-01  3.75000000E-01  1.25000000E-01       0.04688
    28)    -3.75000000E-01  5.00000000E-01  1.25000000E-01       0.02344
    29)    -2.50000000E-01  5.00000000E-01  2.50000000E-01       0.01172

 Together with 48 symmetry operations and time-reversal symmetry 
 yields   512 points in the full Brillouin Zone.


 setmesh: FFT mesh size selected  =    32x   32x   32
          total number of points  =        32768


- screening: taking advantage of time-reversal symmetry 
- Maximum band index for partially occupied states nbvw = 4
- Remaining bands to be divided among processors   nbcw = 476
- Number of bands treated by each node ~1

 Number of electrons calculated from density =    8.0000; Expected =    8.0000
 average of density, n =  0.029628
 r_s =    2.0048
 omega_plasma =   16.6039 [eV]


 calculating chi0 at frequencies [eV] :
  1    0.000000E+00    0.000000E+00
  2    0.000000E+00    5.107465E+03
  3    0.000000E+00    9.547063E+02
  4    0.000000E+00    3.778140E+02
  5    0.000000E+00    1.952896E+02
  6    0.000000E+00    1.152105E+02
  7    0.000000E+00    7.320274E+01
  8    0.000000E+00    4.854451E+01
  9    0.000000E+00    3.292510E+01
 10    0.000000E+00    2.248921E+01
 11    0.000000E+00    1.525320E+01
 12    0.000000E+00    1.011519E+01
 13    0.000000E+00    6.427016E+00
 14    0.000000E+00    3.791596E+00
 15    0.000000E+00    1.959852E+00
 16    0.000000E+00    7.755887E-01
 17    0.000000E+00    1.449759E-01


--------------------------------------------------------------------------------
  q-point number  1        q = ( 0.000000, 0.000000, 0.000000) [r.l.u.]
--------------------------------------------------------------------------------
  chi0(G,G') at the    1 th omega   0.0000   0.0000 [eV]
       1       2       3       4       5       6       7       8       9
    1  -0.000   0.000  -0.000  -0.000   0.000   0.000  -0.000  -0.000   0.000
        0.000   0.000   0.000  -0.000  -0.000   0.000   0.000  -0.000  -0.000

    2   0.000 -18.939  -0.000  -0.094   0.000  -0.094  -0.000  -0.094   0.000
       -0.000   0.000  -4.558  -0.000  -0.263   0.000  -0.263  -0.000  -0.263

  chi0(G,G') at the    2 th omega   0.00005107.4649 [eV]
       1       2       3       4       5       6       7       8       9
    1  -0.000   0.000  -0.000  -0.000   0.000   0.000  -0.000  -0.000   0.000
        0.000   0.000   0.000  -0.000  -0.000   0.000   0.000  -0.000  -0.000

    2   0.000  -0.000   0.000  -0.000  -0.000  -0.000  -0.000  -0.000  -0.000
       -0.000   0.000  -0.000  -0.000  -0.000   0.000  -0.000   0.000  -0.000

  chi0(G,G') at the    3 th omega   0.0000 954.7063 [eV]
       1       2       3       4       5       6       7       8       9
    1  -0.000   0.000  -0.000  -0.000   0.000   0.000  -0.000  -0.000   0.000
       -0.000   0.000   0.000  -0.000  -0.000   0.000   0.000  -0.000  -0.000

    2   0.000  -0.007   0.000  -0.000  -0.000  -0.000  -0.000  -0.000  -0.000
       -0.000   0.000  -0.000  -0.000  -0.000   0.000  -0.000   0.000  -0.000

  chi0(G,G') at the    4 th omega   0.0000 377.8140 [eV]
       1       2       3       4       5       6       7       8       9
    1  -0.000   0.000  -0.000  -0.000   0.000   0.000  -0.000  -0.000   0.000
       -0.000   0.000   0.000  -0.000  -0.000   0.000   0.000  -0.000  -0.000

    2   0.000  -0.044   0.000  -0.001  -0.000  -0.001  -0.000  -0.001  -0.000
       -0.000   0.000  -0.002  -0.000  -0.000   0.000  -0.000   0.000  -0.000

  chi0(G,G') at the    5 th omega   0.0000 195.2896 [eV]
       1       2       3       4       5       6       7       8       9
    1  -0.000   0.000  -0.000  -0.000   0.000   0.000  -0.000  -0.000   0.000
       -0.000   0.000   0.000  -0.000  -0.000   0.000   0.000  -0.000  -0.000

    2   0.000  -0.162   0.000  -0.004  -0.000  -0.004  -0.000  -0.004  -0.000
       -0.000   0.000  -0.007  -0.000  -0.000   0.000  -0.000   0.000  -0.000

  chi0(G,G') at the    6 th omega   0.0000 115.2105 [eV]
       1       2       3       4       5       6       7       8       9
    1  -0.000   0.000  -0.000  -0.000   0.000   0.000  -0.000  -0.000   0.000
        0.000   0.000   0.000  -0.000  -0.000   0.000   0.000  -0.000  -0.000

    2   0.000  -0.445   0.000  -0.011  -0.000  -0.011  -0.000  -0.011  -0.000
       -0.000   0.000  -0.022  -0.000  -0.001   0.000  -0.001   0.000  -0.001

  chi0(G,G') at the    7 th omega   0.0000  73.2027 [eV]
       1       2       3       4       5       6       7       8       9
    1  -0.000   0.000  -0.000  -0.000   0.000   0.000  -0.000  -0.000   0.000
       -0.000   0.000   0.000  -0.000  -0.000   0.000   0.000  -0.000  -0.000

    2   0.000  -1.015   0.000  -0.025  -0.000  -0.025  -0.000  -0.025  -0.000
       -0.000   0.000  -0.057  -0.000  -0.005   0.000  -0.005   0.000  -0.005

  chi0(G,G') at the    8 th omega   0.0000  48.5445 [eV]
       1       2       3       4       5       6       7       8       9
    1  -0.000   0.000  -0.000  -0.000   0.000   0.000  -0.000  -0.000   0.000
       -0.000   0.000   0.000  -0.000  -0.000   0.000   0.000  -0.000  -0.000

    2   0.000  -2.021   0.000  -0.043  -0.000  -0.043  -0.000  -0.043  -0.000
       -0.000   0.000  -0.137  -0.000  -0.017   0.000  -0.017   0.000  -0.017

  chi0(G,G') at the    9 th omega   0.0000  32.9251 [eV]
       1       2       3       4       5       6       7       8       9
    1  -0.000   0.000  -0.000  -0.000   0.000   0.000  -0.000  -0.000   0.000
       -0.000   0.000   0.000  -0.000  -0.000   0.000   0.000  -0.000  -0.000

    2   0.000  -3.591   0.000  -0.058   0.000  -0.058  -0.000  -0.058  -0.000
       -0.000   0.000  -0.304  -0.000  -0.043   0.000  -0.043   0.000  -0.043

  chi0(G,G') at the   10 th omega   0.0000  22.4892 [eV]
       1       2       3       4       5       6       7       8       9
    1  -0.000   0.000  -0.000  -0.000   0.000   0.000  -0.000  -0.000   0.000
       -0.000   0.000   0.000  -0.000  -0.000   0.000   0.000  -0.000  -0.000

    2   0.000  -5.772  -0.000  -0.056   0.000  -0.056  -0.000  -0.056  -0.000
       -0.000   0.000  -0.617  -0.000  -0.086   0.000  -0.086   0.000  -0.086

  chi0(G,G') at the   11 th omega   0.0000  15.2532 [eV]
       1       2       3       4       5       6       7       8       9
    1  -0.000   0.000  -0.000  -0.000   0.000   0.000  -0.000  -0.000   0.000
        0.000   0.000   0.000  -0.000  -0.000   0.000   0.000  -0.000  -0.000

    2   0.000  -8.465  -0.000  -0.029   0.000  -0.029  -0.000  -0.029  -0.000
       -0.000   0.000  -1.132  -0.000  -0.136   0.000  -0.136   0.000  -0.136

  chi0(G,G') at the   12 th omega   0.0000  10.1152 [eV]
       1       2       3       4       5       6       7       8       9
    1  -0.000   0.000  -0.000  -0.000   0.000   0.000  -0.000  -0.000   0.000
        0.000   0.000   0.000  -0.000  -0.000   0.000   0.000  -0.000  -0.000

    2   0.000 -11.422  -0.000   0.006   0.000   0.006  -0.000   0.006  -0.000
       -0.000   0.000  -1.854  -0.000  -0.175   0.000  -0.175   0.000  -0.175

  chi0(G,G') at the   13 th omega   0.0000   6.4270 [eV]
       1       2       3       4       5       6       7       8       9
    1  -0.000   0.000  -0.000  -0.000   0.000   0.000  -0.000  -0.000   0.000
        0.000   0.000   0.000  -0.000  -0.000   0.000   0.000  -0.000  -0.000

    2   0.000 -14.286  -0.000   0.015   0.000   0.015  -0.000   0.015   0.000
       -0.000   0.000  -2.714  -0.000  -0.199   0.000  -0.199   0.000  -0.199

  chi0(G,G') at the   14 th omega   0.0000   3.7916 [eV]
       1       2       3       4       5       6       7       8       9
    1  -0.000   0.000  -0.000  -0.000   0.000   0.000  -0.000  -0.000   0.000
       -0.000   0.000   0.000  -0.000  -0.000   0.000   0.000  -0.000  -0.000

    2   0.000 -16.653  -0.000  -0.018   0.000  -0.018  -0.000  -0.018   0.000
       -0.000   0.000  -3.568  -0.000  -0.221   0.000  -0.221   0.000  -0.221

  chi0(G,G') at the   15 th omega   0.0000   1.9599 [eV]
       1       2       3       4       5       6       7       8       9
    1  -0.000   0.000  -0.000  -0.000   0.000   0.000  -0.000  -0.000   0.000
       -0.000   0.000   0.000  -0.000  -0.000   0.000   0.000  -0.000  -0.000

    2   0.000 -18.172  -0.000  -0.063   0.000  -0.063  -0.000  -0.063   0.000
       -0.000   0.000  -4.204  -0.000  -0.245   0.000  -0.245  -0.000  -0.245

 No. of calculated frequencies >  15, stop printing
 For q-point:  0.000010 0.000020 0.000030
  dielectric constant =  13.2041
  dielectric constant without local fields =  14.6448

  Average fulfillment of the sum rule on Im[epsilon] for q-point    1 :     95.71  [%]
  Heads and wings of the symmetrical epsilon^-1(G,G') 

   Upper and lower wings at the    1 th omega   0.0000   0.0000 [eV]
       1       2       3       4       5       6       7       8       9
      0.076   0.006  -0.006  -0.017   0.017   0.017  -0.017  -0.006   0.006
     -0.000   0.006   0.006  -0.017  -0.017   0.017   0.017  -0.006  -0.006
       1       2       3       4       5       6       7       8       9
      0.076   0.006  -0.006  -0.017   0.017   0.017  -0.017  -0.006   0.006
     -0.000  -0.006  -0.006   0.017   0.017  -0.017  -0.017   0.006   0.006


   Upper and lower wings at the    2 th omega   0.00005107.4649 [eV]
       1       2       3       4       5       6       7       8       9
      1.000   0.000  -0.000  -0.000   0.000   0.000  -0.000  -0.000   0.000
      0.000   0.000   0.000  -0.000  -0.000   0.000   0.000  -0.000  -0.000
       1       2       3       4       5       6       7       8       9
      1.000   0.000  -0.000  -0.000   0.000   0.000  -0.000  -0.000   0.000
      0.000  -0.000  -0.000   0.000   0.000  -0.000  -0.000   0.000   0.000


   Upper and lower wings at the    3 th omega   0.0000 954.7063 [eV]
       1       2       3       4       5       6       7       8       9
      1.000   0.000  -0.000  -0.000   0.000   0.000  -0.000  -0.000   0.000
     -0.000   0.000   0.000  -0.000  -0.000   0.000   0.000  -0.000  -0.000
       1       2       3       4       5       6       7       8       9
      1.000   0.000  -0.000  -0.000   0.000   0.000  -0.000  -0.000   0.000
     -0.000  -0.000  -0.000   0.000   0.000  -0.000  -0.000   0.000   0.000


   Upper and lower wings at the    4 th omega   0.0000 377.8140 [eV]
       1       2       3       4       5       6       7       8       9
      0.998   0.000  -0.000  -0.000   0.000   0.000  -0.000  -0.000   0.000
     -0.000   0.000   0.000  -0.000  -0.000   0.000   0.000  -0.000  -0.000
       1       2       3       4       5       6       7       8       9
      0.998   0.000  -0.000  -0.000   0.000   0.000  -0.000  -0.000   0.000
     -0.000  -0.000  -0.000   0.000   0.000  -0.000  -0.000   0.000   0.000


   Upper and lower wings at the    5 th omega   0.0000 195.2896 [eV]
       1       2       3       4       5       6       7       8       9
      0.993   0.000  -0.000  -0.001   0.001   0.001  -0.001  -0.000   0.000
      0.000   0.000   0.000  -0.001  -0.001   0.001   0.001  -0.000  -0.000
       1       2       3       4       5       6       7       8       9
      0.993   0.000  -0.000  -0.001   0.001   0.001  -0.001  -0.000   0.000
      0.000  -0.000  -0.000   0.001   0.001  -0.001  -0.001   0.000   0.000


   Upper and lower wings at the    6 th omega   0.0000 115.2105 [eV]
       1       2       3       4       5       6       7       8       9
      0.981   0.001  -0.001  -0.002   0.002   0.002  -0.002  -0.001   0.001
      0.000   0.001   0.001  -0.002  -0.002   0.002   0.002  -0.001  -0.001
       1       2       3       4       5       6       7       8       9
      0.981   0.001  -0.001  -0.002   0.002   0.002  -0.002  -0.001   0.001
      0.000  -0.001  -0.001   0.002   0.002  -0.002  -0.002   0.001   0.001


   Upper and lower wings at the    7 th omega   0.0000  73.2027 [eV]
       1       2       3       4       5       6       7       8       9
      0.954   0.001  -0.001  -0.004   0.004   0.004  -0.004  -0.001   0.001
     -0.000   0.001   0.001  -0.004  -0.004   0.004   0.004  -0.001  -0.001
       1       2       3       4       5       6       7       8       9
      0.954   0.001  -0.001  -0.004   0.004   0.004  -0.004  -0.001   0.001
     -0.000  -0.001  -0.001   0.004   0.004  -0.004  -0.004   0.001   0.001


   Upper and lower wings at the    8 th omega   0.0000  48.5445 [eV]
       1       2       3       4       5       6       7       8       9
      0.904   0.003  -0.003  -0.008   0.008   0.008  -0.008  -0.003   0.003
      0.000   0.003   0.003  -0.008  -0.008   0.008   0.008  -0.003  -0.003
       1       2       3       4       5       6       7       8       9
      0.904   0.003  -0.003  -0.008   0.008   0.008  -0.008  -0.003   0.003
      0.000  -0.003  -0.003   0.008   0.008  -0.008  -0.008   0.003   0.003


   Upper and lower wings at the    9 th omega   0.0000  32.9251 [eV]
       1       2       3       4       5       6       7       8       9
      0.818   0.005  -0.005  -0.014   0.014   0.014  -0.014  -0.005   0.005
      0.000   0.005   0.005  -0.014  -0.014   0.014   0.014  -0.005  -0.005
       1       2       3       4       5       6       7       8       9
      0.818   0.005  -0.005  -0.014   0.014   0.014  -0.014  -0.005   0.005
      0.000  -0.005  -0.005   0.014   0.014  -0.014  -0.014   0.005   0.005


   Upper and lower wings at the   10 th omega   0.0000  22.4892 [eV]
       1       2       3       4       5       6       7       8       9
      0.689   0.007  -0.007  -0.021   0.021   0.021  -0.021  -0.007   0.007
     -0.000   0.007   0.007  -0.021  -0.021   0.021   0.021  -0.007  -0.007
       1       2       3       4       5       6       7       8       9
      0.689   0.007  -0.007  -0.021   0.021   0.021  -0.021  -0.007   0.007
     -0.000  -0.007  -0.007   0.021   0.021  -0.021  -0.021   0.007   0.007


   Upper and lower wings at the   11 th omega   0.0000  15.2532 [eV]
       1       2       3       4       5       6       7       8       9
      0.525   0.009  -0.009  -0.026   0.026   0.026  -0.026  -0.009   0.009
      0.000   0.009   0.009  -0.026  -0.026   0.026   0.026  -0.009  -0.009
       1       2       3       4       5       6       7       8       9
      0.525   0.009  -0.009  -0.026   0.026   0.026  -0.026  -0.009   0.009
      0.000  -0.009  -0.009   0.026   0.026  -0.026  -0.026   0.009   0.009


   Upper and lower wings at the   12 th omega   0.0000  10.1152 [eV]
       1       2       3       4       5       6       7       8       9
      0.359   0.009  -0.009  -0.028   0.028   0.028  -0.028  -0.009   0.009
     -0.000   0.009   0.009  -0.028  -0.028   0.028   0.028  -0.009  -0.009
       1       2       3       4       5       6       7       8       9
      0.359   0.009  -0.009  -0.028   0.028   0.028  -0.028  -0.009   0.009
     -0.000  -0.009  -0.009   0.028   0.028  -0.028  -0.028   0.009   0.009


   Upper and lower wings at the   13 th omega   0.0000   6.4270 [eV]
       1       2       3       4       5       6       7       8       9
      0.224   0.009  -0.009  -0.026   0.026   0.026  -0.026  -0.009   0.009
     -0.000   0.009   0.009  -0.026  -0.026   0.026   0.026  -0.009  -0.009
       1       2       3       4       5       6       7       8       9
      0.224   0.009  -0.009  -0.026   0.026   0.026  -0.026  -0.009   0.009
     -0.000  -0.009  -0.009   0.026   0.026  -0.026  -0.026   0.009   0.009


   Upper and lower wings at the   14 th omega   0.0000   3.7916 [eV]
       1       2       3       4       5       6       7       8       9
      0.138   0.007  -0.007  -0.022   0.022   0.022  -0.022  -0.007   0.007
     -0.000   0.007   0.007  -0.022  -0.022   0.022   0.022  -0.007  -0.007
       1       2       3       4       5       6       7       8       9
      0.138   0.007  -0.007  -0.022   0.022   0.022  -0.022  -0.007   0.007
     -0.000  -0.007  -0.007   0.022   0.022  -0.022  -0.022   0.007   0.007


   Upper and lower wings at the   15 th omega   0.0000   1.9599 [eV]
       1       2       3       4       5       6       7       8       9
      0.095   0.006  -0.006  -0.019   0.019   0.019  -0.019  -0.006   0.006
     -0.000   0.006   0.006  -0.019  -0.019   0.019   0.019  -0.006  -0.006
       1       2       3       4       5       6       7       8       9
      0.095   0.006  -0.006  -0.019   0.019   0.019  -0.019  -0.006   0.006
     -0.000  -0.006  -0.006   0.019   0.019  -0.019  -0.019   0.006   0.006


   Upper and lower wings at the   16 th omega   0.0000   0.7756 [eV]
       1       2       3       4       5       6       7       8       9
      0.079   0.006  -0.006  -0.018   0.018   0.018  -0.018  -0.006   0.006
     -0.000   0.006   0.006  -0.018  -0.018   0.018   0.018  -0.006  -0.006
       1       2       3       4       5       6       7       8       9
      0.079   0.006  -0.006  -0.018   0.018   0.018  -0.018  -0.006   0.006
     -0.000  -0.006  -0.006   0.018   0.018  -0.018  -0.018   0.006   0.006


   Upper and lower wings at the   17 th omega   0.0000   0.1450 [eV]
       1       2       3       4       5       6       7       8       9
      0.076   0.006  -0.006  -0.017   0.017   0.017  -0.017  -0.006   0.006
     -0.000   0.006   0.006  -0.017  -0.017   0.017   0.017  -0.006  -0.006
       1       2       3       4       5       6       7       8       9
      0.076   0.006  -0.006  -0.017   0.017   0.017  -0.017  -0.006   0.006
     -0.000  -0.006  -0.006   0.017   0.017  -0.017  -0.017   0.006   0.006




--------------------------------------------------------------------------------
  q-point number  2        q = ( 0.125000, 0.000000, 0.000000) [r.l.u.]
--------------------------------------------------------------------------------
  chi0(G,G') at the    1 th omega   0.0000   0.0000 [eV]
       1       2       3       4       5       6       7       8       9
    1  -3.611  -1.248   1.559  -0.161  -1.016  -0.161  -1.016  -0.161  -1.016
        0.000  -1.248  -1.559  -0.161   1.016  -0.161   1.016  -0.161   1.016

    2  -1.248 -18.821   0.000  -0.414  -0.000  -0.414  -0.000  -0.414   0.000
        1.248   0.000  -4.350   0.000  -0.048   0.000  -0.048   0.000  -0.048

  chi0(G,G') at the    2 th omega   0.00005107.4649 [eV]
       1       2       3       4       5       6       7       8       9
    1  -0.000  -0.000   0.000   0.000  -0.000   0.000  -0.000   0.000  -0.000
        0.000  -0.000  -0.000   0.000   0.000   0.000   0.000   0.000   0.000

    2  -0.000  -0.000  -0.000  -0.000   0.000  -0.000  -0.000  -0.000  -0.000
        0.000   0.000  -0.000   0.000  -0.000   0.000  -0.000   0.000  -0.000

  chi0(G,G') at the    3 th omega   0.0000 954.7063 [eV]
       1       2       3       4       5       6       7       8       9
    1  -0.000  -0.000   0.000   0.000  -0.000   0.000  -0.000   0.000  -0.000
        0.000  -0.000  -0.000   0.000   0.000   0.000   0.000   0.000   0.000

    2  -0.000  -0.009  -0.000  -0.000   0.000  -0.000  -0.000  -0.000  -0.000
        0.000   0.000  -0.000   0.000  -0.000   0.000  -0.000   0.000  -0.000

  chi0(G,G') at the    4 th omega   0.0000 377.8140 [eV]
       1       2       3       4       5       6       7       8       9
    1  -0.001  -0.001   0.001   0.000  -0.000   0.000  -0.000   0.000  -0.000
        0.000  -0.001  -0.001   0.000   0.000   0.000   0.000   0.000   0.000

    2  -0.001  -0.056  -0.000  -0.001   0.000  -0.001  -0.000  -0.001  -0.000
        0.001   0.000  -0.002   0.000  -0.000   0.000  -0.000   0.000  -0.000

  chi0(G,G') at the    5 th omega   0.0000 195.2896 [eV]
       1       2       3       4       5       6       7       8       9
    1  -0.003  -0.003   0.002   0.001  -0.001   0.001  -0.001   0.001  -0.001
        0.000  -0.003  -0.002   0.001   0.001   0.001   0.001   0.001   0.001

    2  -0.003  -0.204  -0.000  -0.003   0.000  -0.003  -0.000  -0.003  -0.000
        0.003   0.000  -0.007   0.000  -0.000   0.000  -0.000   0.000  -0.000

  chi0(G,G') at the    6 th omega   0.0000 115.2105 [eV]
       1       2       3       4       5       6       7       8       9
    1  -0.007  -0.009   0.007   0.002  -0.004   0.002  -0.004   0.002  -0.004
        0.000  -0.009  -0.007   0.002   0.004   0.002   0.004   0.002   0.004

    2  -0.009  -0.553  -0.000  -0.009   0.000  -0.009  -0.000  -0.009  -0.000
        0.009   0.000  -0.022   0.000  -0.002   0.000  -0.002   0.000  -0.002

  chi0(G,G') at the    7 th omega   0.0000  73.2027 [eV]
       1       2       3       4       5       6       7       8       9
    1  -0.018  -0.020   0.016   0.004  -0.009   0.004  -0.009   0.004  -0.009
        0.000  -0.020  -0.016   0.004   0.009   0.004   0.009   0.004   0.009

    2  -0.020  -1.239  -0.000  -0.019   0.000  -0.019  -0.000  -0.019  -0.000
        0.020   0.000  -0.056   0.000  -0.006   0.000  -0.006   0.000  -0.006

  chi0(G,G') at the    8 th omega   0.0000  48.5445 [eV]
       1       2       3       4       5       6       7       8       9
    1  -0.039  -0.043   0.034   0.007  -0.018   0.007  -0.018   0.007  -0.018
        0.000  -0.043  -0.034   0.007   0.018   0.007   0.018   0.007   0.018

    2  -0.043  -2.398  -0.000  -0.032   0.000  -0.032  -0.000  -0.032  -0.000
        0.043   0.000  -0.134   0.000  -0.019   0.000  -0.019   0.000  -0.019

  chi0(G,G') at the    9 th omega   0.0000  32.9251 [eV]
       1       2       3       4       5       6       7       8       9
    1  -0.083  -0.083   0.069   0.013  -0.037   0.013  -0.037   0.013  -0.037
        0.000  -0.083  -0.069   0.013   0.037   0.013   0.037   0.013   0.037

    2  -0.083  -4.116  -0.000  -0.041   0.000  -0.041   0.000  -0.041   0.000
        0.083   0.000  -0.298   0.000  -0.045   0.000  -0.045   0.000  -0.045

  chi0(G,G') at the   10 th omega   0.0000  22.4892 [eV]
       1       2       3       4       5       6       7       8       9
    1  -0.169  -0.154   0.134   0.023  -0.072   0.023  -0.072   0.023  -0.072
        0.000  -0.154  -0.134   0.023   0.072   0.023   0.072   0.023   0.072

    2  -0.154  -6.376   0.000  -0.035   0.000  -0.035   0.000  -0.035  -0.000
        0.154   0.000  -0.606   0.000  -0.080   0.000  -0.080   0.000  -0.080

  chi0(G,G') at the   11 th omega   0.0000  15.2532 [eV]
       1       2       3       4       5       6       7       8       9
    1  -0.339  -0.272   0.247   0.033  -0.136   0.033  -0.136   0.033  -0.136
        0.000  -0.272  -0.247   0.033   0.136   0.033   0.136   0.033   0.136

    2  -0.272  -9.044  -0.000  -0.018   0.000  -0.018  -0.000  -0.018  -0.000
        0.272   0.000  -1.113   0.000  -0.106   0.000  -0.106   0.000  -0.106

  chi0(G,G') at the   12 th omega   0.0000  10.1152 [eV]
       1       2       3       4       5       6       7       8       9
    1  -0.664  -0.451   0.437   0.039  -0.245   0.039  -0.245   0.039  -0.245
        0.000  -0.451  -0.437   0.039   0.245   0.039   0.245   0.039   0.245

    2  -0.451 -11.880   0.000  -0.019  -0.000  -0.019  -0.000  -0.019  -0.000
        0.451   0.000  -1.825   0.000  -0.101  -0.000  -0.101   0.000  -0.101

  chi0(G,G') at the   13 th omega   0.0000   6.4270 [eV]
       1       2       3       4       5       6       7       8       9
    1  -1.249  -0.695   0.722   0.022  -0.418   0.022  -0.418   0.022  -0.418
        0.000  -0.695  -0.722   0.022   0.418   0.022   0.418   0.022   0.418

    2  -0.695 -14.569   0.000  -0.077  -0.000  -0.077  -0.000  -0.077   0.000
        0.695   0.000  -2.665   0.000  -0.068  -0.000  -0.068   0.000  -0.068

  chi0(G,G') at the   14 th omega   0.0000   3.7916 [eV]
       1       2       3       4       5       6       7       8       9
    1  -2.122  -0.959   1.078  -0.033  -0.649  -0.033  -0.649  -0.033  -0.649
        0.000  -0.959  -1.078  -0.033   0.649  -0.033   0.649  -0.033   0.649

    2  -0.959 -16.753   0.000  -0.202  -0.000  -0.202  -0.000  -0.202  -0.000
        0.959   0.000  -3.473   0.000  -0.037  -0.000  -0.037  -0.000  -0.037

  chi0(G,G') at the   15 th omega   0.0000   1.9599 [eV]
       1       2       3       4       5       6       7       8       9
    1  -3.012  -1.153   1.382  -0.107  -0.869  -0.107  -0.869  -0.107  -0.869
        0.000  -1.153  -1.382  -0.107   0.869  -0.107   0.869  -0.107   0.869

    2  -1.153 -18.133   0.000  -0.332  -0.000  -0.332  -0.000  -0.332   0.000
        1.153   0.000  -4.047   0.000  -0.033  -0.000  -0.033   0.000  -0.033

 No. of calculated frequencies >  15, stop printing
  Average fulfillment of the sum rule on Im[epsilon] for q-point    2 :     95.38  [%]


--------------------------------------------------------------------------------
  q-point number  3        q = ( 0.250000, 0.000000, 0.000000) [r.l.u.]
--------------------------------------------------------------------------------
  chi0(G,G') at the    1 th omega   0.0000   0.0000 [eV]
       1       2       3       4       5       6       7       8       9
    1  -8.875  -1.688   2.411  -0.954  -1.916  -0.954  -1.916  -0.954  -1.916
        0.000  -1.688  -2.411  -0.954   1.916  -0.954   1.916  -0.954   1.916

    2  -1.688 -18.504  -0.000  -0.323  -0.000  -0.323   0.000  -0.323   0.000
        1.688   0.000  -4.025  -0.000   0.012  -0.000   0.012  -0.000   0.012

  chi0(G,G') at the    2 th omega   0.00005107.4649 [eV]
       1       2       3       4       5       6       7       8       9
    1  -0.000  -0.000   0.000   0.000  -0.000   0.000  -0.000   0.000  -0.000
        0.000  -0.000  -0.000   0.000   0.000   0.000   0.000   0.000   0.000

    2  -0.000  -0.000  -0.000  -0.000   0.000  -0.000   0.000  -0.000   0.000
        0.000   0.000  -0.000  -0.000  -0.000  -0.000  -0.000  -0.000  -0.000

  chi0(G,G') at the    3 th omega   0.0000 954.7063 [eV]
       1       2       3       4       5       6       7       8       9
    1  -0.000  -0.000   0.000   0.000  -0.000   0.000  -0.000   0.000  -0.000
        0.000  -0.000  -0.000   0.000   0.000   0.000   0.000   0.000   0.000

    2  -0.000  -0.011  -0.000  -0.000   0.000  -0.000   0.000  -0.000   0.000
        0.000   0.000  -0.000  -0.000  -0.000  -0.000  -0.000  -0.000  -0.000

  chi0(G,G') at the    4 th omega   0.0000 377.8140 [eV]
       1       2       3       4       5       6       7       8       9
    1  -0.003  -0.002   0.001   0.000  -0.001   0.000  -0.001   0.000  -0.001
        0.000  -0.002  -0.001   0.000   0.001   0.000   0.001   0.000   0.001

    2  -0.002  -0.069  -0.000  -0.001  -0.000  -0.001   0.000  -0.001   0.000
        0.002   0.000  -0.002  -0.000  -0.000  -0.000  -0.000  -0.000  -0.000

  chi0(G,G') at the    5 th omega   0.0000 195.2896 [eV]
       1       2       3       4       5       6       7       8       9
    1  -0.010  -0.007   0.004   0.000  -0.003   0.000  -0.003   0.000  -0.003
        0.000  -0.007  -0.004   0.000   0.003   0.000   0.003   0.000   0.003

    2  -0.007  -0.250  -0.000  -0.002   0.000  -0.002   0.000  -0.002   0.000
        0.007   0.000  -0.007  -0.000  -0.000  -0.000  -0.000  -0.000  -0.000

  chi0(G,G') at the    6 th omega   0.0000 115.2105 [eV]
       1       2       3       4       5       6       7       8       9
    1  -0.029  -0.019   0.012   0.001  -0.009   0.001  -0.009   0.001  -0.009
        0.000  -0.019  -0.012   0.001   0.009   0.001   0.009   0.001   0.009

    2  -0.019  -0.669  -0.000  -0.006   0.000  -0.006   0.000  -0.006   0.000
        0.019   0.000  -0.020  -0.000  -0.002  -0.000  -0.002  -0.000  -0.002

  chi0(G,G') at the    7 th omega   0.0000  73.2027 [eV]
       1       2       3       4       5       6       7       8       9
    1  -0.071  -0.044   0.028   0.002  -0.022   0.002  -0.022   0.002  -0.022
        0.000  -0.044  -0.028   0.002   0.022   0.002   0.022   0.002   0.022

    2  -0.044  -1.465  -0.000  -0.012   0.000  -0.012   0.000  -0.012   0.000
        0.044   0.000  -0.053  -0.000  -0.007  -0.000  -0.007  -0.000  -0.007

  chi0(G,G') at the    8 th omega   0.0000  48.5445 [eV]
       1       2       3       4       5       6       7       8       9
    1  -0.156  -0.092   0.060   0.003  -0.047   0.003  -0.047   0.003  -0.047
        0.000  -0.092  -0.060   0.003   0.047   0.003   0.047   0.003   0.047

    2  -0.092  -2.752  -0.000  -0.019  -0.000  -0.019   0.000  -0.019   0.000
        0.092   0.000  -0.127  -0.000  -0.020  -0.000  -0.020  -0.000  -0.020

  chi0(G,G') at the    9 th omega   0.0000  32.9251 [eV]
       1       2       3       4       5       6       7       8       9
    1  -0.326  -0.177   0.121   0.002  -0.096   0.002  -0.096   0.002  -0.096
        0.000  -0.177  -0.121   0.002   0.096   0.002   0.096   0.002   0.096

    2  -0.177  -4.562  -0.000  -0.020   0.000  -0.020   0.000  -0.020   0.000
        0.177   0.000  -0.281  -0.000  -0.044  -0.000  -0.044  -0.000  -0.044

  chi0(G,G') at the   10 th omega   0.0000  22.4892 [eV]
       1       2       3       4       5       6       7       8       9
    1  -0.653  -0.318   0.236  -0.007  -0.185  -0.007  -0.185  -0.007  -0.185
        0.000  -0.318  -0.236  -0.007   0.185  -0.007   0.185  -0.007   0.185

    2  -0.318  -6.828  -0.000  -0.012   0.000  -0.012   0.000  -0.012   0.000
        0.318   0.000  -0.572  -0.000  -0.071  -0.000  -0.071  -0.000  -0.071

  chi0(G,G') at the   11 th omega   0.0000  15.2532 [eV]
       1       2       3       4       5       6       7       8       9
    1  -1.265  -0.539   0.442  -0.041  -0.341  -0.041  -0.341  -0.041  -0.341
        0.000  -0.539  -0.442  -0.041   0.341  -0.041   0.341  -0.041   0.341

    2  -0.539  -9.398  -0.000  -0.001   0.000  -0.001   0.000  -0.001   0.000
        0.539   0.000  -1.056  -0.000  -0.078  -0.000  -0.078  -0.000  -0.078

  chi0(G,G') at the   12 th omega   0.0000  10.1152 [eV]
       1       2       3       4       5       6       7       8       9
    1  -2.348  -0.847   0.781  -0.132  -0.595  -0.132  -0.595  -0.132  -0.595
        0.000  -0.847  -0.781  -0.132   0.595  -0.132   0.595  -0.132   0.595

    2  -0.847 -12.058  -0.000  -0.014   0.000  -0.014   0.000  -0.014   0.000
        0.847   0.000  -1.742  -0.000  -0.049  -0.000  -0.049  -0.000  -0.049

  chi0(G,G') at the   13 th omega   0.0000   6.4270 [eV]
       1       2       3       4       5       6       7       8       9
    1  -4.042  -1.206   1.265  -0.318  -0.955  -0.318  -0.955  -0.318  -0.955
        0.000  -1.206  -1.265  -0.318   0.955  -0.318   0.955  -0.318   0.955

    2  -1.206 -14.539  -0.000  -0.080   0.000  -0.080   0.000  -0.080   0.000
        1.206   0.000  -2.540  -0.000   0.007  -0.000   0.007  -0.000   0.007

  chi0(G,G') at the   14 th omega   0.0000   3.7916 [eV]
       1       2       3       4       5       6       7       8       9
    1  -6.125  -1.509   1.803  -0.586  -1.364  -0.586  -1.364  -0.586  -1.364
        0.000  -1.509  -1.803  -0.586   1.364  -0.586   1.364  -0.586   1.364

    2  -1.509 -16.545  -0.000  -0.186   0.000  -0.186   0.000  -0.186   0.000
        1.509   0.000  -3.275  -0.000   0.048  -0.000   0.048  -0.000   0.048

  chi0(G,G') at the   15 th omega   0.0000   1.9599 [eV]
       1       2       3       4       5       6       7       8       9
    1  -7.856  -1.657   2.203  -0.822  -1.702  -0.822  -1.702  -0.822  -1.702
        0.000  -1.657  -2.203  -0.822   1.702  -0.822   1.702  -0.822   1.702

    2  -1.657 -17.834  -0.000  -0.275  -0.000  -0.275   0.000  -0.275   0.000
        1.657   0.000  -3.769  -0.000   0.043  -0.000   0.043  -0.000   0.043

 No. of calculated frequencies >  15, stop printing
  Average fulfillment of the sum rule on Im[epsilon] for q-point    3 :     95.48  [%]


--------------------------------------------------------------------------------
  q-point number  4        q = ( 0.375000, 0.000000, 0.000000) [r.l.u.]
--------------------------------------------------------------------------------
  chi0(G,G') at the    1 th omega   0.0000   0.0000 [eV]
       1       2       3       4       5       6       7       8       9
    1 -12.331  -1.964   2.772  -1.580  -2.348  -1.580  -2.348  -1.580  -2.348
        0.000  -1.964  -2.772  -1.580   2.348  -1.580   2.348  -1.580   2.348

    2  -1.964 -17.916   0.000  -0.010   0.000  -0.010   0.000  -0.010  -0.000
        1.964   0.000  -3.763  -0.000   0.124   0.000   0.124  -0.000   0.124

  chi0(G,G') at the    2 th omega   0.00005107.4649 [eV]
       1       2       3       4       5       6       7       8       9
    1  -0.000  -0.000   0.000  -0.000  -0.000  -0.000  -0.000  -0.000  -0.000
        0.000  -0.000  -0.000  -0.000   0.000  -0.000   0.000  -0.000   0.000

    2  -0.000  -0.000  -0.000  -0.000  -0.000  -0.000  -0.000  -0.000  -0.000
        0.000   0.000  -0.000  -0.000  -0.000  -0.000  -0.000   0.000  -0.000

  chi0(G,G') at the    3 th omega   0.0000 954.7063 [eV]
       1       2       3       4       5       6       7       8       9
    1  -0.001  -0.001   0.000  -0.000  -0.000  -0.000  -0.000  -0.000  -0.000
        0.000  -0.001  -0.000  -0.000   0.000  -0.000   0.000  -0.000   0.000

    2  -0.001  -0.013  -0.000  -0.000  -0.000  -0.000  -0.000  -0.000  -0.000
        0.001   0.000  -0.000  -0.000  -0.000  -0.000  -0.000   0.000  -0.000

  chi0(G,G') at the    4 th omega   0.0000 377.8140 [eV]
       1       2       3       4       5       6       7       8       9
    1  -0.006  -0.003   0.001  -0.000  -0.002  -0.000  -0.002  -0.000  -0.002
        0.000  -0.003  -0.001  -0.000   0.002  -0.000   0.002  -0.000   0.002

    2  -0.003  -0.083  -0.000  -0.000  -0.000  -0.000  -0.000  -0.000  -0.000
        0.003   0.000  -0.002  -0.000  -0.000  -0.000  -0.000   0.000  -0.000

  chi0(G,G') at the    5 th omega   0.0000 195.2896 [eV]
       1       2       3       4       5       6       7       8       9
    1  -0.023  -0.012   0.005  -0.000  -0.006  -0.000  -0.006  -0.000  -0.006
        0.000  -0.012  -0.005  -0.000   0.006  -0.000   0.006  -0.000   0.006

    2  -0.012  -0.299  -0.000  -0.001  -0.000  -0.001  -0.000  -0.001  -0.000
        0.012   0.000  -0.006  -0.000  -0.000  -0.000  -0.000   0.000  -0.000

  chi0(G,G') at the    6 th omega   0.0000 115.2105 [eV]
       1       2       3       4       5       6       7       8       9
    1  -0.065  -0.032   0.015  -0.002  -0.017  -0.002  -0.017  -0.002  -0.017
        0.000  -0.032  -0.015  -0.002   0.017  -0.002   0.017  -0.002   0.017

    2  -0.032  -0.790  -0.000  -0.003  -0.000  -0.003  -0.000  -0.003  -0.000
        0.032   0.000  -0.019  -0.000  -0.002  -0.000  -0.002   0.000  -0.002

  chi0(G,G') at the    7 th omega   0.0000  73.2027 [eV]
       1       2       3       4       5       6       7       8       9
    1  -0.158  -0.072   0.035  -0.004  -0.040  -0.004  -0.040  -0.004  -0.040
        0.000  -0.072  -0.035  -0.004   0.040  -0.004   0.040  -0.004   0.040

    2  -0.072  -1.688  -0.000  -0.004  -0.000  -0.004  -0.000  -0.004  -0.000
        0.072   0.000  -0.049  -0.000  -0.008  -0.000  -0.008   0.000  -0.008

  chi0(G,G') at the    8 th omega   0.0000  48.5445 [eV]
       1       2       3       4       5       6       7       8       9
    1  -0.346  -0.147   0.075  -0.012  -0.085  -0.012  -0.085  -0.012  -0.085
        0.000  -0.147  -0.075  -0.012   0.085  -0.012   0.085  -0.012   0.085

    2  -0.147  -3.070   0.000  -0.004  -0.000  -0.004  -0.000  -0.004  -0.000
        0.147   0.000  -0.115  -0.000  -0.021  -0.000  -0.021  -0.000  -0.021

  chi0(G,G') at the    9 th omega   0.0000  32.9251 [eV]
       1       2       3       4       5       6       7       8       9
    1  -0.710  -0.275   0.153  -0.033  -0.171  -0.033  -0.171  -0.033  -0.171
        0.000  -0.275  -0.153  -0.033   0.171  -0.033   0.171  -0.033   0.171

    2  -0.275  -4.916   0.000   0.001  -0.000   0.001  -0.000   0.001  -0.000
        0.275   0.000  -0.253  -0.000  -0.042  -0.000  -0.042  -0.000  -0.042

  chi0(G,G') at the   10 th omega   0.0000  22.4892 [eV]
       1       2       3       4       5       6       7       8       9
    1  -1.384  -0.480   0.301  -0.084  -0.323  -0.084  -0.323  -0.084  -0.323
        0.000  -0.480  -0.301  -0.084   0.323  -0.084   0.323  -0.084   0.323

    2  -0.480  -7.122   0.000   0.014  -0.000   0.014  -0.000   0.014  -0.000
        0.480   0.000  -0.515  -0.000  -0.062  -0.000  -0.062  -0.000  -0.062

  chi0(G,G') at the   11 th omega   0.0000  15.2532 [eV]
       1       2       3       4       5       6       7       8       9
    1  -2.564  -0.779   0.565  -0.199  -0.573  -0.199  -0.573  -0.199  -0.573
        0.000  -0.779  -0.565  -0.199   0.573  -0.199   0.573  -0.199   0.573

    2  -0.779  -9.537   0.000   0.027  -0.000   0.027  -0.000   0.027  -0.000
        0.779   0.000  -0.961  -0.000  -0.059  -0.000  -0.059  -0.000  -0.059

  chi0(G,G') at the   12 th omega   0.0000  10.1152 [eV]
       1       2       3       4       5       6       7       8       9
    1  -4.436  -1.162   0.991  -0.422  -0.939  -0.422  -0.939  -0.422  -0.939
        0.000  -1.162  -0.991  -0.422   0.939  -0.422   0.939  -0.422   0.939

    2  -1.162 -11.978   0.000   0.027  -0.000   0.027  -0.000   0.027  -0.000
        1.162   0.000  -1.608  -0.000  -0.022  -0.000  -0.022  -0.000  -0.022

  chi0(G,G') at the   13 th omega   0.0000   6.4270 [eV]
       1       2       3       4       5       6       7       8       9
    1  -6.945  -1.554   1.566  -0.770  -1.390  -0.770  -1.390  -0.770  -1.390
        0.000  -1.554  -1.566  -0.770   1.390  -0.770   1.390  -0.770   1.390

    2  -1.554 -14.231   0.000   0.006  -0.000   0.006  -0.000   0.006  -0.000
        1.554   0.000  -2.366  -0.000   0.042  -0.000   0.042  -0.000   0.042

  chi0(G,G') at the   14 th omega   0.0000   3.7916 [eV]
       1       2       3       4       5       6       7       8       9
    1  -9.521  -1.837   2.155  -1.159  -1.828  -1.159  -1.828  -1.159  -1.828
        0.000  -1.837  -2.155  -1.159   1.828  -1.159   1.828  -1.159   1.828

    2  -1.837 -16.062   0.000  -0.016   0.000  -0.016  -0.000  -0.016  -0.000
        1.837   0.000  -3.058  -0.000   0.097  -0.000   0.097  -0.000   0.097

  chi0(G,G') at the   15 th omega   0.0000   1.9599 [eV]
       1       2       3       4       5       6       7       8       9
    1 -11.350  -1.951   2.563  -1.440  -2.149  -1.440  -2.149  -1.440  -2.149
        0.000  -1.951  -2.563  -1.440   2.149  -1.440   2.149  -1.440   2.149

    2  -1.951 -17.264   0.000  -0.019   0.000  -0.019  -0.000  -0.019   0.000
        1.951   0.000  -3.519  -0.000   0.123   0.000   0.123  -0.000   0.123

 No. of calculated frequencies >  15, stop printing
  Average fulfillment of the sum rule on Im[epsilon] for q-point    4 :     95.56  [%]


--------------------------------------------------------------------------------
  q-point number  5        q = ( 0.500000, 0.000000, 0.000000) [r.l.u.]
--------------------------------------------------------------------------------
  chi0(G,G') at the    1 th omega   0.0000   0.0000 [eV]
       1       2       3       4       5       6       7       8       9
    1 -14.555  -2.272   2.876  -1.977  -2.540  -1.977  -2.540  -1.977  -2.540
        0.000  -2.272  -2.876  -1.977   2.540  -1.977   2.540  -1.977   2.540

    2  -2.272 -16.925  -0.000   0.309   0.000   0.309   0.000   0.309   0.000
        2.272   0.000  -3.560  -0.000   0.223  -0.000   0.223  -0.000   0.223

  chi0(G,G') at the    2 th omega   0.00005107.4649 [eV]
       1       2       3       4       5       6       7       8       9
    1  -0.000  -0.000   0.000  -0.000  -0.000  -0.000  -0.000  -0.000  -0.000
        0.000  -0.000  -0.000  -0.000   0.000  -0.000   0.000  -0.000   0.000

    2  -0.000  -0.001   0.000  -0.000   0.000  -0.000   0.000  -0.000   0.000
        0.000   0.000  -0.000   0.000  -0.000   0.000  -0.000   0.000  -0.000

  chi0(G,G') at the    3 th omega   0.0000 954.7063 [eV]
       1       2       3       4       5       6       7       8       9
    1  -0.002  -0.001   0.000  -0.000  -0.000  -0.000  -0.000  -0.000  -0.000
        0.000  -0.001  -0.000  -0.000   0.000  -0.000   0.000  -0.000   0.000

    2  -0.001  -0.016   0.000  -0.000   0.000  -0.000   0.000  -0.000   0.000
        0.001   0.000  -0.000   0.000  -0.000   0.000  -0.000   0.000  -0.000

  chi0(G,G') at the    4 th omega   0.0000 377.8140 [eV]
       1       2       3       4       5       6       7       8       9
    1  -0.011  -0.005   0.002  -0.001  -0.003  -0.001  -0.003  -0.001  -0.003
        0.000  -0.005  -0.002  -0.001   0.003  -0.001   0.003  -0.001   0.003

    2  -0.005  -0.099   0.000  -0.000   0.000  -0.000   0.000  -0.000   0.000
        0.005   0.000  -0.001   0.000  -0.000   0.000  -0.000   0.000  -0.000

  chi0(G,G') at the    5 th omega   0.0000 195.2896 [eV]
       1       2       3       4       5       6       7       8       9
    1  -0.041  -0.017   0.006  -0.002  -0.010  -0.002  -0.010  -0.002  -0.010
        0.000  -0.017  -0.006  -0.002   0.010  -0.002   0.010  -0.002   0.010

    2  -0.017  -0.352   0.000   0.000   0.000   0.000   0.000   0.000   0.000
        0.017   0.000  -0.006   0.000  -0.001   0.000  -0.001   0.000  -0.001

  chi0(G,G') at the    6 th omega   0.0000 115.2105 [eV]
       1       2       3       4       5       6       7       8       9
    1  -0.116  -0.045   0.016  -0.006  -0.027  -0.006  -0.027  -0.006  -0.027
        0.000  -0.045  -0.016  -0.006   0.027  -0.006   0.027  -0.006   0.027

    2  -0.045  -0.913   0.000   0.001   0.000   0.001   0.000   0.001   0.000
        0.045   0.000  -0.016   0.000  -0.003   0.000  -0.003   0.000  -0.003

  chi0(G,G') at the    7 th omega   0.0000  73.2027 [eV]
       1       2       3       4       5       6       7       8       9
    1  -0.278  -0.102   0.037  -0.016  -0.062  -0.016  -0.062  -0.016  -0.062
        0.000  -0.102  -0.037  -0.016   0.062  -0.016   0.062  -0.016   0.062

    2  -0.102  -1.899   0.000   0.004   0.000   0.004   0.000   0.004   0.000
        0.102   0.000  -0.042   0.000  -0.009   0.000  -0.009   0.000  -0.009

  chi0(G,G') at the    8 th omega   0.0000  48.5445 [eV]
       1       2       3       4       5       6       7       8       9
    1  -0.601  -0.205   0.080  -0.038  -0.131  -0.038  -0.131  -0.038  -0.131
        0.000  -0.205  -0.080  -0.038   0.131  -0.038   0.131  -0.038   0.131

    2  -0.205  -3.342   0.000   0.011   0.000   0.011   0.000   0.011   0.000
        0.205   0.000  -0.099  -0.000  -0.021   0.000  -0.021   0.000  -0.021

  chi0(G,G') at the    9 th omega   0.0000  32.9251 [eV]
       1       2       3       4       5       6       7       8       9
    1  -1.207  -0.374   0.164  -0.089  -0.258  -0.089  -0.258  -0.089  -0.258
        0.000  -0.374  -0.164  -0.089   0.258  -0.089   0.258  -0.089   0.258

    2  -0.374  -5.172   0.000   0.023   0.000   0.023   0.000   0.023   0.000
        0.374   0.000  -0.215  -0.000  -0.040   0.000  -0.040   0.000  -0.040

  chi0(G,G') at the   10 th omega   0.0000  22.4892 [eV]
       1       2       3       4       5       6       7       8       9
    1  -2.274  -0.630   0.323  -0.196  -0.471  -0.196  -0.471  -0.196  -0.471
        0.000  -0.630  -0.323  -0.196   0.471  -0.196   0.471  -0.196   0.471

    2  -0.630  -7.263   0.000   0.040   0.000   0.040   0.000   0.040   0.000
        0.630   0.000  -0.438  -0.000  -0.055   0.000  -0.055   0.000  -0.055

  chi0(G,G') at the   11 th omega   0.0000  15.2532 [eV]
       1       2       3       4       5       6       7       8       9
    1  -3.998  -0.983   0.607  -0.401  -0.795  -0.401  -0.795  -0.401  -0.795
        0.000  -0.983  -0.607  -0.401   0.795  -0.401   0.795  -0.401   0.795

    2  -0.983  -9.475   0.000   0.063   0.000   0.063   0.000   0.063   0.000
        0.983   0.000  -0.827  -0.000  -0.051  -0.000  -0.051   0.000  -0.051

  chi0(G,G') at the   12 th omega   0.0000  10.1152 [eV]
       1       2       3       4       5       6       7       8       9
    1  -6.454  -1.403   1.060  -0.735  -1.224  -0.735  -1.224  -0.735  -1.224
        0.000  -1.403  -1.060  -0.735   1.224  -0.735   1.224  -0.735   1.224

    2  -1.403 -11.662   0.000   0.092   0.000   0.092   0.000   0.092   0.000
        1.403   0.000  -1.416  -0.000  -0.017  -0.000  -0.017   0.000  -0.017

  chi0(G,G') at the   13 th omega   0.0000   6.4270 [eV]
       1       2       3       4       5       6       7       8       9
    1  -9.348  -1.809   1.660  -1.169  -1.691  -1.169  -1.691  -1.169  -1.691
        0.000  -1.809  -1.660  -1.169   1.691  -1.169   1.691  -1.169   1.691

    2  -1.809 -13.660  -0.000   0.131   0.000   0.131   0.000   0.131   0.000
        1.809   0.000  -2.141  -0.000   0.044  -0.000   0.044   0.000   0.044

  chi0(G,G') at the   14 th omega   0.0000   3.7916 [eV]
       1       2       3       4       5       6       7       8       9
    1 -11.978  -2.098   2.257  -1.584  -2.096  -1.584  -2.096  -1.584  -2.096
        0.000  -2.098  -2.257  -1.584   2.096  -1.584   2.096  -1.584   2.096

    2  -2.098 -15.277   0.000   0.190   0.000   0.190   0.000   0.190   0.000
        2.098   0.000  -2.826  -0.000   0.114  -0.000   0.114  -0.000   0.114

  chi0(G,G') at the   15 th omega   0.0000   1.9599 [eV]
       1       2       3       4       5       6       7       8       9
    1 -13.686  -2.231   2.663  -1.852  -2.372  -1.852  -2.372  -1.852  -2.372
        0.000  -2.231  -2.663  -1.852   2.372  -1.852   2.372  -1.852   2.372

    2  -2.231 -16.341  -0.000   0.256   0.000   0.256   0.000   0.256   0.000
        2.231   0.000  -3.297  -0.000   0.176  -0.000   0.176  -0.000   0.176

 No. of calculated frequencies >  15, stop printing
  Average fulfillment of the sum rule on Im[epsilon] for q-point    5 :     95.59  [%]


--------------------------------------------------------------------------------
  q-point number  6        q = ( 0.125000, 0.125000, 0.000000) [r.l.u.]
--------------------------------------------------------------------------------
  chi0(G,G') at the    1 th omega   0.0000   0.0000 [eV]
       1       2       3       4       5       6       7       8       9
    1  -4.746  -1.400   0.341   0.341  -1.400   0.341  -1.400  -1.400   0.341
        0.000  -1.400  -0.341   0.341   1.400   0.341   1.400  -1.400  -0.341

    2  -1.400 -19.128  -0.000  -0.242  -0.000  -0.242   0.000  -0.544   0.000
        1.400   0.000  -4.005  -0.000   0.071   0.000   0.071   0.000  -0.287

  chi0(G,G') at the    2 th omega   0.00005107.4649 [eV]
       1       2       3       4       5       6       7       8       9
    1  -0.000  -0.000   0.000   0.000  -0.000   0.000  -0.000  -0.000   0.000
        0.000  -0.000  -0.000   0.000   0.000   0.000   0.000  -0.000  -0.000

    2  -0.000  -0.000  -0.000  -0.000   0.000  -0.000   0.000  -0.000   0.000
        0.000   0.000  -0.000  -0.000  -0.000   0.000  -0.000   0.000  -0.000

  chi0(G,G') at the    3 th omega   0.0000 954.7063 [eV]
       1       2       3       4       5       6       7       8       9
    1  -0.000  -0.000   0.000   0.000  -0.000   0.000  -0.000  -0.000   0.000
        0.000  -0.000  -0.000   0.000   0.000   0.000   0.000  -0.000  -0.000

    2  -0.000  -0.008  -0.000  -0.000   0.000  -0.000   0.000  -0.000   0.000
        0.000   0.000  -0.000  -0.000  -0.000   0.000  -0.000   0.000  -0.000

  chi0(G,G') at the    4 th omega   0.0000 377.8140 [eV]
       1       2       3       4       5       6       7       8       9
    1  -0.001  -0.001   0.000   0.000  -0.001   0.000  -0.001  -0.001   0.000
        0.000  -0.001  -0.000   0.000   0.001   0.000   0.001  -0.001  -0.000

    2  -0.001  -0.053  -0.000  -0.001   0.000  -0.001   0.000  -0.001   0.000
        0.001   0.000  -0.002  -0.000  -0.000   0.000  -0.000   0.000  -0.000

  chi0(G,G') at the    5 th omega   0.0000 195.2896 [eV]
       1       2       3       4       5       6       7       8       9
    1  -0.003  -0.002   0.001   0.001  -0.002   0.001  -0.002  -0.002   0.001
        0.000  -0.002  -0.001   0.001   0.002   0.001   0.002  -0.002  -0.001

    2  -0.002  -0.192  -0.000  -0.004   0.000  -0.004   0.000  -0.003   0.000
        0.002   0.000  -0.007  -0.000  -0.000   0.000  -0.000   0.000  -0.000

  chi0(G,G') at the    6 th omega   0.0000 115.2105 [eV]
       1       2       3       4       5       6       7       8       9
    1  -0.010  -0.007   0.004   0.004  -0.007   0.004  -0.007  -0.007   0.004
        0.000  -0.007  -0.004   0.004   0.007   0.004   0.007  -0.007  -0.004

    2  -0.007  -0.522  -0.000  -0.011   0.000  -0.011   0.000  -0.007   0.000
        0.007   0.000  -0.021  -0.000  -0.002   0.000  -0.002   0.000  -0.001

  chi0(G,G') at the    7 th omega   0.0000  73.2027 [eV]
       1       2       3       4       5       6       7       8       9
    1  -0.024  -0.015   0.009   0.009  -0.015   0.009  -0.015  -0.015   0.009
        0.000  -0.015  -0.009   0.009   0.015   0.009   0.015  -0.015  -0.009

    2  -0.015  -1.175  -0.000  -0.023   0.000  -0.023   0.000  -0.015   0.000
        0.015   0.000  -0.056  -0.000  -0.006   0.000  -0.006   0.000  -0.005

  chi0(G,G') at the    8 th omega   0.0000  48.5445 [eV]
       1       2       3       4       5       6       7       8       9
    1  -0.053  -0.033   0.019   0.019  -0.033   0.019  -0.033  -0.033   0.019
        0.000  -0.033  -0.019   0.019   0.033   0.019   0.033  -0.033  -0.019

    2  -0.033  -2.293  -0.000  -0.041   0.000  -0.041   0.000  -0.023   0.000
        0.033   0.000  -0.134  -0.000  -0.019   0.000  -0.019   0.000  -0.016

  chi0(G,G') at the    9 th omega   0.0000  32.9251 [eV]
       1       2       3       4       5       6       7       8       9
    1  -0.110  -0.065   0.036   0.036  -0.065   0.036  -0.065  -0.065   0.036
        0.000  -0.065  -0.036   0.036   0.065   0.036   0.065  -0.065  -0.036

    2  -0.065  -3.975  -0.000  -0.055   0.000  -0.055   0.000  -0.026   0.000
        0.065   0.000  -0.296  -0.000  -0.044   0.000  -0.044   0.000  -0.042

  chi0(G,G') at the   10 th omega   0.0000  22.4892 [eV]
       1       2       3       4       5       6       7       8       9
    1  -0.225  -0.123   0.066   0.066  -0.123   0.066  -0.123  -0.123   0.066
        0.000  -0.123  -0.066   0.066   0.123   0.066   0.123  -0.123  -0.066

    2  -0.123  -6.222  -0.000  -0.054   0.000  -0.054   0.000  -0.017   0.000
        0.123   0.000  -0.599  -0.000  -0.078   0.000  -0.078   0.000  -0.083

  chi0(G,G') at the   11 th omega   0.0000  15.2532 [eV]
       1       2       3       4       5       6       7       8       9
    1  -0.449  -0.224   0.113   0.113  -0.224   0.113  -0.224  -0.224   0.113
        0.000  -0.224  -0.113   0.113   0.224   0.113   0.224  -0.224  -0.113

    2  -0.224  -8.907  -0.000  -0.035   0.000  -0.035   0.000  -0.003   0.000
        0.224   0.000  -1.090  -0.000  -0.101   0.000  -0.101   0.000  -0.129

  chi0(G,G') at the   12 th omega   0.0000  10.1152 [eV]
       1       2       3       4       5       6       7       8       9
    1  -0.878  -0.388   0.177   0.177  -0.388   0.177  -0.388  -0.388   0.177
        0.000  -0.388  -0.177   0.177   0.388   0.177   0.388  -0.388  -0.177

    2  -0.388 -11.788  -0.000  -0.017   0.000  -0.017   0.000  -0.017   0.000
        0.388   0.000  -1.764  -0.000  -0.093   0.000  -0.093   0.000  -0.160

  chi0(G,G') at the   13 th omega   0.0000   6.4270 [eV]
       1       2       3       4       5       6       7       8       9
    1  -1.650  -0.636   0.250   0.250  -0.636   0.250  -0.636  -0.636   0.250
        0.000  -0.636  -0.250   0.250   0.636   0.250   0.636  -0.636  -0.250

    2  -0.636 -14.551  -0.000  -0.035   0.000  -0.035   0.000  -0.103   0.000
        0.636   0.000  -2.531  -0.000  -0.048   0.000  -0.048   0.000  -0.178

  chi0(G,G') at the   14 th omega   0.0000   3.7916 [eV]
       1       2       3       4       5       6       7       8       9
    1  -2.807  -0.950   0.309   0.309  -0.950   0.309  -0.950  -0.950   0.309
        0.000  -0.950  -0.309   0.309   0.950   0.309   0.950  -0.950  -0.309

    2  -0.950 -16.845  -0.000  -0.102   0.000  -0.102   0.000  -0.269   0.000
        0.950   0.000  -3.241  -0.000   0.014   0.000   0.014   0.000  -0.206

  chi0(G,G') at the   15 th omega   0.0000   1.9599 [eV]
       1       2       3       4       5       6       7       8       9
    1  -3.979  -1.230   0.336   0.336  -1.230   0.336  -1.230  -1.230   0.336
        0.000  -1.230  -0.336   0.336   1.230   0.336   1.230  -1.230  -0.336

    2  -1.230 -18.347  -0.000  -0.183   0.000  -0.183   0.000  -0.437   0.000
        1.230   0.000  -3.737  -0.000   0.057   0.000   0.057   0.000  -0.249

 No. of calculated frequencies >  15, stop printing
  Average fulfillment of the sum rule on Im[epsilon] for q-point    6 :     95.39  [%]


--------------------------------------------------------------------------------
  q-point number  7        q = ( 0.250000, 0.125000, 0.000000) [r.l.u.]
--------------------------------------------------------------------------------
  chi0(G,G') at the    1 th omega   0.0000   0.0000 [eV]
       1       2       3       4       5       6       7       8       9
    1  -9.249  -1.970   1.316  -0.308  -2.115  -0.308  -2.115  -1.793  -0.990
        0.000  -1.970  -1.316  -0.308   2.115  -0.308   2.115  -1.793   0.990

    2  -1.970 -18.758  -0.000  -0.374  -0.000  -0.374  -0.000  -0.439   0.000
        1.970   0.000  -3.725   0.000   0.165   0.000   0.165  -0.000  -0.249

  chi0(G,G') at the    2 th omega   0.00005107.4649 [eV]
       1       2       3       4       5       6       7       8       9
[...]
           strten2     0.0000000000E+00  0.0000000000E+00  0.0000000000E+00
                       0.0000000000E+00  0.0000000000E+00  0.0000000000E+00
           symrel      1  0  0   0  1  0   0  0  1      -1  0  0   0 -1  0   0  0 -1
                       0 -1  1   0 -1  0   1 -1  0       0  1 -1   0  1  0  -1  1  0
                      -1  0  0  -1  0  1  -1  1  0       1  0  0   1  0 -1   1 -1  0
                       0  1 -1   1  0 -1   0  0 -1       0 -1  1  -1  0  1   0  0  1
                      -1  0  0  -1  1  0  -1  0  1       1  0  0   1 -1  0   1  0 -1
                       0 -1  1   1 -1  0   0 -1  0       0  1 -1  -1  1  0   0  1  0
                       1  0  0   0  0  1   0  1  0      -1  0  0   0  0 -1   0 -1  0
                       0  1 -1   0  0 -1   1  0 -1       0 -1  1   0  0  1  -1  0  1
                      -1  0  1  -1  1  0  -1  0  0       1  0 -1   1 -1  0   1  0  0
                       0 -1  0   1 -1  0   0 -1  1       0  1  0  -1  1  0   0  1 -1
                       1  0 -1   0  0 -1   0  1 -1      -1  0  1   0  0  1   0 -1  1
                       0  1  0   0  0  1   1  0  0       0 -1  0   0  0 -1  -1  0  0
                       1  0 -1   0  1 -1   0  0 -1      -1  0  1   0 -1  1   0  0  1
                       0 -1  0   0 -1  1   1 -1  0       0  1  0   0  1 -1  -1  1  0
                      -1  0  1  -1  0  0  -1  1  0       1  0 -1   1  0  0   1 -1  0
                       0  1  0   1  0  0   0  0  1       0 -1  0  -1  0  0   0  0 -1
                       0  0 -1   0  1 -1   1  0 -1       0  0  1   0 -1  1  -1  0  1
                       1 -1  0   0 -1  1   0 -1  0      -1  1  0   0  1 -1   0  1  0
                       0  0  1   1  0  0   0  1  0       0  0 -1  -1  0  0   0 -1  0
                      -1  1  0  -1  0  0  -1  0  1       1 -1  0   1  0  0   1  0 -1
                       0  0  1   0  1  0   1  0  0       0  0 -1   0 -1  0  -1  0  0
                       1 -1  0   0 -1  0   0 -1  1      -1  1  0   0  1  0   0  1 -1
                       0  0 -1   1  0 -1   0  1 -1       0  0  1  -1  0  1   0 -1  1
                      -1  1  0  -1  0  1  -1  0  0       1 -1  0   1  0 -1   1  0  0
           timopt          -1
            tnons      0.0000000  0.0000000  0.0000000     0.2500000  0.2500000  0.2500000
                       0.0000000  0.0000000  0.0000000     0.2500000  0.2500000  0.2500000
                       0.0000000  0.0000000  0.0000000     0.2500000  0.2500000  0.2500000
                       0.0000000  0.0000000  0.0000000     0.2500000  0.2500000  0.2500000
                       0.0000000  0.0000000  0.0000000     0.2500000  0.2500000  0.2500000
                       0.0000000  0.0000000  0.0000000     0.2500000  0.2500000  0.2500000
                       0.0000000  0.0000000  0.0000000     0.2500000  0.2500000  0.2500000
                       0.0000000  0.0000000  0.0000000     0.2500000  0.2500000  0.2500000
                       0.0000000  0.0000000  0.0000000     0.2500000  0.2500000  0.2500000
                       0.0000000  0.0000000  0.0000000     0.2500000  0.2500000  0.2500000
                       0.0000000  0.0000000  0.0000000     0.2500000  0.2500000  0.2500000
                       0.0000000  0.0000000  0.0000000     0.2500000  0.2500000  0.2500000
                       0.0000000  0.0000000  0.0000000     0.2500000  0.2500000  0.2500000
                       0.0000000  0.0000000  0.0000000     0.2500000  0.2500000  0.2500000
                       0.0000000  0.0000000  0.0000000     0.2500000  0.2500000  0.2500000
                       0.0000000  0.0000000  0.0000000     0.2500000  0.2500000  0.2500000
                       0.0000000  0.0000000  0.0000000     0.2500000  0.2500000  0.2500000
                       0.0000000  0.0000000  0.0000000     0.2500000  0.2500000  0.2500000
                       0.0000000  0.0000000  0.0000000     0.2500000  0.2500000  0.2500000
                       0.0000000  0.0000000  0.0000000     0.2500000  0.2500000  0.2500000
                       0.0000000  0.0000000  0.0000000     0.2500000  0.2500000  0.2500000
                       0.0000000  0.0000000  0.0000000     0.2500000  0.2500000  0.2500000
                       0.0000000  0.0000000  0.0000000     0.2500000  0.2500000  0.2500000
                       0.0000000  0.0000000  0.0000000     0.2500000  0.2500000  0.2500000
            typat      1  1
              wtk        0.00195    0.01563    0.01563    0.01563    0.00781    0.01172
                         0.04688    0.04688    0.04688    0.04688    0.04688    0.02344
                         0.01172    0.04688    0.04688    0.04688    0.02344    0.01172
                         0.04688    0.02344    0.00586    0.04688    0.09375    0.04688
                         0.04688    0.09375    0.04688    0.02344    0.01172
           xangst      0.0000000000E+00  0.0000000000E+00  0.0000000000E+00
                       1.3573395400E+00  1.3573395400E+00  1.3573395400E+00
            xcart      0.0000000000E+00  0.0000000000E+00  0.0000000000E+00
                       2.5650000000E+00  2.5650000000E+00  2.5650000000E+00
             xred      0.0000000000E+00  0.0000000000E+00  0.0000000000E+00
                       2.5000000000E-01  2.5000000000E-01  2.5000000000E-01
            znucl       14.00000

================================================================================

 Test the timer : 
  a combined call timab(*,1,tsec) + timab(*,2,tsec) is 
- CPU time =    6.0727E-07 sec,    Wall time =    6.0705E-07 sec

- Total cpu        time (s,m,h):     297462.6     4957.71     82.629
- Total wall clock time (s,m,h):     297882.8     4964.71     82.745
-
- For major independent code sections, cpu and wall times (sec),
-  as well as % of the time and number of calls for node 0
-
-<BEGIN_TIMER mpi_nprocs = 256, omp_nthreads = 1, mpi_rank = 0>
- cpu_time =         1160.0, wall_time =         1163.7
-
- routine                            cpu     %          wall     %      number of calls Gflops    Speedup Efficacity
-                                                                        (-1=no count)
- sigma/=fourdp                   116.722   0.0       117.110   0.0              1      -1.00        1.00       1.00
- wfd_read_wfk                      1.541   0.0         1.553   0.0              2      -1.00        0.99       0.99
- others (153)                      0.636   0.0         0.663   0.0             -1      -1.00        0.96       0.96
-<END_TIMER>
-
- subtotal                        118.899   0.0       119.325   0.0                                  1.00       1.00

- For major independent code sections, cpu and wall times (sec),
- as well as % of the total time and number of calls 

-<BEGIN_TIMER mpi_nprocs = 256, omp_nthreads = 1, mpi_rank = world>
- cpu_time =      297462.6, wall_time =      297882.8
-
- routine                            cpu     %          wall     %      number of calls Gflops    Speedup Efficacity
-                                                                        (-1=no count)
- sigma/=fourdp                 29569.828   9.9     29925.257  10.0            256      -1.00        0.99       0.99
- wfd_read_wfk                    398.301   0.1       398.515   0.1            512      -1.00        1.00       1.00
- pspini                           62.281   0.0        64.049   0.0            512      -1.00        0.97       0.97
- timing timab                     29.727   0.0        29.730   0.0           3584      -1.00        1.00       1.00
- abinit(2)                        16.610   0.0        16.957   0.0            256      -1.00        0.98       0.98
- invars2                          12.463   0.0        12.466   0.0            512      -1.00        1.00       1.00
- ewald                             4.988   0.0         4.990   0.0            512      -1.00        1.00       1.00
- fourdp                            4.837   0.0         8.004   0.0           8704      -1.00        0.60       0.60
- xc:pot/=fourdp                    4.526   0.0         4.559   0.0            768      -1.00        0.99       0.99
- mkffnl                            2.542   0.0         2.486   0.0           7424      -1.00        1.02       1.02
- mkcore                            1.039   0.0         1.039   0.0            512      -1.00        1.00       1.00
- kpgsph                            0.687   0.0         0.689   0.0          76858      -1.00        1.00       1.00
- symrhg(no FFT)                    0.328   0.0         0.329   0.0            512      -1.00        1.00       1.00
- others (142)                      0.000   0.0         0.000   0.0             -1      -1.00        0.00       0.00
-<END_TIMER>

- subtotal                      30108.158  10.1     30469.069  10.2                                  0.99       0.99

 Partitioning of abinit
- abinit                       297462.646 100.0    297882.845 100.0            256                   1.00       1.00
 
- abinit(1)                        56.572   0.0        61.914   0.0            256                   0.91       0.91
- abinit(4)                        64.870   0.0        69.321   0.0            256                   0.94       0.94
- driver                       297310.426  99.9    297721.691  99.9            256                   1.00       1.00

- subtotal                     297462.646 100.0    297882.845 100.0                                  1.00       1.00

 Partitioning of driver
- driver                       297310.426  99.9    297721.691  99.9            256                   1.00       1.00
 
- screening                    267658.513  90.0    267708.026  89.9            256                   1.00       1.00
- sigma                         29569.903   9.9     29925.331  10.0            256                   0.99       0.99
- (other)                          73.696   0.0        73.780   0.0             -1                   1.00       1.00

- subtotal                     297310.426  99.9    297721.691  99.9                                  1.00       1.00

 Partitioning of screening
- screening                    267658.513  90.0    267708.026  89.9            256                   1.00       1.00
 
- screening(init1)                331.005   0.1       333.398   0.1            256                   0.99       0.99
- screening(wfs)                  266.709   0.1       266.934   0.1            256                   1.00       1.00
- screening(cchi0q0)             1510.485   0.5      1517.811   0.5            256                   1.00       1.00
- screening(cchi0)             263984.696  88.7    264016.317  88.6           7168                   1.00       1.00
- screening(q-loop,end)          1479.640   0.5      1480.064   0.5           7424                   1.00       1.00

- subtotal                     267652.984  90.0    267702.551  89.9                                  1.00       1.00

 Partitioning of sigma
- sigma                         29569.903   9.9     29925.331  10.0            256                   0.99       0.99
 
- setup_sigma                     124.286   0.0       124.703   0.0            256                   1.00       1.00
- sigma(rdkss)                    156.212   0.1       156.264   0.1            256                   1.00       1.00
- sigma(getW)                     495.223   0.2       810.078   0.3            256                   0.61       0.61
- sigma(calc_sigx_me)             618.266   0.2       618.339   0.2            256                   1.00       1.00
- sigma(calc_sigc_me)           28039.259   9.4     28078.344   9.4            512                   1.00       1.00

- subtotal                      29541.651   9.9     29896.504  10.0                                  0.99       0.99

 Partitioning of calc_sigc_me
- calc_sigc_me                  28039.257   9.4     28078.343   9.4            512                   1.00       1.00
 
- calc_sigc_me(Init)              114.874   0.0       114.964   0.0            512                   1.00       1.00
- calc_sigc_me(Init q)          26798.311   9.0     26824.257   9.0          22528                   1.00       1.00
- calc_sigc_me(loop)             1093.956   0.4      1106.848   0.4          22528                   0.99       0.99

- subtotal                      28032.781   9.4     28071.805   9.4                                  1.00       1.00

 Partitioning of  fourdp (upwards partitioning)
- fourdp                            4.837   0.0         8.004   0.0           8704                   0.60       0.60
 

- subtotal                          4.837   0.0         8.004   0.0                                  0.60       0.60
-
-Synchronisation (=leave_test) and MPI calls 
- communic.MPI                      2.084   0.0         2.124   0.0            256                   0.98       0.98
-
- subtotal                          0.000   0.0         0.000   0.0                                  0.00       0.00

 Additional information
- timana(1)                         0.304   0.0         0.313   0.0            256                   0.97       0.97
- total timab                      30.257   0.0        30.261   0.0       50701818                   1.00       1.00
- xc:fourdp                         1.996   0.0         1.986   0.0           6144                   1.00       1.00
- calc_sigc_me(1)            46856420.302****** 193337839.840******          42240                   0.24       0.24
- calc_sigc_me(rho_tw_g)          129.103   0.0       129.297   0.0          42240                   1.00       1.00
- calc_sigc_me(2)                   0.464   0.0         0.474   0.0         267360                   0.98       0.98
- calc_sigc_me(sigma_me)            1.290   0.0         1.299   0.0         267360                   0.99       0.99
- calc_sigc_me(ac_lrk_appl        951.790   0.3       954.496   0.3          42240                   1.00       1.00
- calc_sigc_me(ac_lrk_diag      25743.342   8.7     25768.821   8.7          22528                   1.00       1.00
- cchi0                        263984.334  88.7    264015.990  88.6           7168                   1.00       1.00

 timana : in multi dataset mode, the more detailed analysis is not done.

================================================================================

 Suggested references for the acknowledgment of ABINIT usage.

 The users of ABINIT have little formal obligations with respect to the ABINIT group
 (those specified in the GNU General Public License, http://www.gnu.org/copyleft/gpl.txt).
 However, it is common practice in the scientific literature,
 to acknowledge the efforts of people that have made the research possible.
 In this spirit, please find below suggested citations of work written by ABINIT developers,
 corresponding to implementations inside of ABINIT that you have used in the present run.
 Note also that it will be of great value to readers of publications presenting these results,
 to read papers enabling them to understand the theoretical formalism and details
 of the ABINIT implementation.
 For information on why they are suggested, see also https://docs.abinit.org/theory/acknowledgments.
-
- [1] The Abinit project: Impact, environment and recent developments.
- Computer Phys. Comm. 248, 107042 (2020).
- X.Gonze, B. Amadon, G. Antonius, F.Arnardi, L.Baguet, J.-M.Beuken,
- J.Bieder, F.Bottin, J.Bouchet, E.Bousquet, N.Brouwer, F.Bruneval,
- G.Brunin, T.Cavignac, J.-B. Charraud, Wei Chen, M.Cote, S.Cottenier,
- J.Denier, G.Geneste, Ph.Ghosez, M.Giantomassi, Y.Gillet, O.Gingras,
- D.R.Hamann, G.Hautier, Xu He, N.Helbig, N.Holzwarth, Y.Jia, F.Jollet,
- W.Lafargue-Dit-Hauret, K.Lejaeghere, M.A.L.Marques, A.Martin, C.Martins,
- H.P.C. Miranda, F.Naccarato, K. Persson, G.Petretto, V.Planes, Y.Pouillon,
- S.Prokhorenko, F.Ricci, G.-M.Rignanese, A.H.Romero, M.M.Schmitt, M.Torrent,
- M.J.van Setten, B.Van Troeye, M.J.Verstraete, G.Zerah and J.W.Zwanzig
- Comment: the fifth generic paper describing the ABINIT project.
- Note that a version of this paper, that is not formatted for Computer Phys. Comm. 
- is available at https://www.abinit.org/sites/default/files/ABINIT20.pdf .
- The licence allows the authors to put it on the Web.
- DOI and bibtex: see https://docs.abinit.org/theory/bibliography/#gonze2020
-
- [2] Optimized norm-conserving Vanderbilt pseudopotentials.
- D.R. Hamann, Phys. Rev. B 88, 085117 (2013).
- Comment: Some pseudopotential generated using the ONCVPSP code were used.
- DOI and bibtex: see https://docs.abinit.org/theory/bibliography/#hamann2013
-
- [3] ABINIT: Overview, and focus on selected capabilities
- J. Chem. Phys. 152, 124102 (2020).
- A. Romero, D.C. Allan, B. Amadon, G. Antonius, T. Applencourt, L.Baguet,
- J.Bieder, F.Bottin, J.Bouchet, E.Bousquet, F.Bruneval,
- G.Brunin, D.Caliste, M.Cote,
- J.Denier, C. Dreyer, Ph.Ghosez, M.Giantomassi, Y.Gillet, O.Gingras,
- D.R.Hamann, G.Hautier, F.Jollet, G. Jomard,
- A.Martin, 
- H.P.C. Miranda, F.Naccarato, G.Petretto, N.A. Pike, V.Planes,
- S.Prokhorenko, T. Rangel, F.Ricci, G.-M.Rignanese, M.Royo, M.Stengel, M.Torrent,
- M.J.van Setten, B.Van Troeye, M.J.Verstraete, J.Wiktor, J.W.Zwanziger, and X.Gonze.
- Comment: a global overview of ABINIT, with focus on selected capabilities .
- Note that a version of this paper, that is not formatted for J. Chem. Phys 
- is available at https://www.abinit.org/sites/default/files/ABINIT20_JPC.pdf .
- The licence allows the authors to put it on the Web.
- DOI and bibtex: see https://docs.abinit.org/theory/bibliography/#romero2020
-
- [4] Recent developments in the ABINIT software package.
- Computer Phys. Comm. 205, 106 (2016).
- X.Gonze, F.Jollet, F.Abreu Araujo, D.Adams, B.Amadon, T.Applencourt,
- C.Audouze, J.-M.Beuken, J.Bieder, A.Bokhanchuk, E.Bousquet, F.Bruneval
- D.Caliste, M.Cote, F.Dahm, F.Da Pieve, M.Delaveau, M.Di Gennaro,
- B.Dorado, C.Espejo, G.Geneste, L.Genovese, A.Gerossier, M.Giantomassi,
- Y.Gillet, D.R.Hamann, L.He, G.Jomard, J.Laflamme Janssen, S.Le Roux,
- A.Levitt, A.Lherbier, F.Liu, I.Lukacevic, A.Martin, C.Martins,
- M.J.T.Oliveira, S.Ponce, Y.Pouillon, T.Rangel, G.-M.Rignanese,
- A.H.Romero, B.Rousseau, O.Rubel, A.A.Shukri, M.Stankovski, M.Torrent,
- M.J.Van Setten, B.Van Troeye, M.J.Verstraete, D.Waroquier, J.Wiktor,
- B.Xu, A.Zhou, J.W.Zwanziger.
- Comment: the fourth generic paper describing the ABINIT project.
- Note that a version of this paper, that is not formatted for Computer Phys. Comm. 
- is available at https://www.abinit.org/sites/default/files/ABINIT16.pdf .
- The licence allows the authors to put it on the Web.
- DOI and bibtex: see https://docs.abinit.org/theory/bibliography/#gonze2016
-
- And optionally:
-
- [5] ABINIT: First-principles approach of materials and nanosystem properties.
- Computer Phys. Comm. 180, 2582-2615 (2009).
- X. Gonze, B. Amadon, P.-M. Anglade, J.-M. Beuken, F. Bottin, P. Boulanger, F. Bruneval,
- D. Caliste, R. Caracas, M. Cote, T. Deutsch, L. Genovese, Ph. Ghosez, M. Giantomassi
- S. Goedecker, D.R. Hamann, P. Hermet, F. Jollet, G. Jomard, S. Leroux, M. Mancini, S. Mazevet,
- M.J.T. Oliveira, G. Onida, Y. Pouillon, T. Rangel, G.-M. Rignanese, D. Sangalli, R. Shaltaf,
- M. Torrent, M.J. Verstraete, G. Zerah, J.W. Zwanziger
- Comment: the third generic paper describing the ABINIT project.
- Note that a version of this paper, that is not formatted for Computer Phys. Comm. 
- is available at https://www.abinit.org/sites/default/files/ABINIT_CPC_v10.pdf .
- The licence allows the authors to put it on the Web.
- DOI and bibtex: see https://docs.abinit.org/theory/bibliography/#gonze2009
-
- Proc.   0 individual time (sec): cpu=       1160.0  wall=       1163.7

================================================================================

 Calculation completed.
.Delivered   0 WARNINGs and   0 COMMENTs to log file.
+Overall time at end (sec) : cpu=     297482.0  wall=     297902.3
