
.Version 9.9.2 of ABINIT 
.(MPI version, prepared for a x86_64_linux_gnu11.2 computer) 

.Copyright (C) 1998-2022 ABINIT group . 
 ABINIT comes with ABSOLUTELY NO WARRANTY.
 It is free software, and you are welcome to redistribute it
 under certain conditions (GNU General Public License,
 see ~abinit/COPYING or http://www.gnu.org/copyleft/gpl.txt).

 ABINIT is a project of the Universite Catholique de Louvain,
 Corning Inc. and other collaborators, see ~abinit/doc/developers/contributors.txt .
 Please read https://docs.abinit.org/theory/acknowledgments for suggested
 acknowledgments of the ABINIT effort.
 For more information, see https://www.abinit.org .

.Starting date : Thu 16 Feb 2023.
- ( at 21h35 )
  
- input  file    -> run.abi
- output file    -> run.abo
- root for input  files -> ../indata_ac
- root for output files -> outdata_ac


 DATASET    1 : space group Fd -3 m (#227); Bravais cF (face-center cubic)
================================================================================
 Values of the parameters that define the memory need for DATASET  1.
     intxc =       0    ionmov =       0      iscf =       7    lmnmax =       6
     lnmax =       6     mgfft =      30  mpssoang =       3    mqgrid =    3001
     natom =       2  nloc_mem =       1    nspden =       1   nspinor =       1
    nsppol =       1      nsym =      48    n1xccc =    2501    ntypat =       1
    occopt =       1   xclevel =       2
-    mband =         480        mffmem =           1         mkmem =           1
       mpw =         995          nfft =       27000          nkpt =          29
================================================================================
P This job should need less than                      23.995 Mbytes of memory.
  Rough estimation (10% accuracy) of disk space for files :
_ WF disk file :    211.342 Mbytes ; DEN or POT disk file :      0.208 Mbytes.
================================================================================


 DATASET    2 : space group Fd -3 m (#227); Bravais cF (face-center cubic)
================================================================================
 Values of the parameters that define the memory need for DATASET  2.
     intxc =       0    ionmov =       0      iscf =       7    lmnmax =       6
     lnmax =       6     mgfft =      30  mpssoang =       3    mqgrid =    3001
     natom =       2  nloc_mem =       1    nspden =       1   nspinor =       1
    nsppol =       1      nsym =      48    n1xccc =    2501    ntypat =       1
    occopt =       1   xclevel =       2
-    mband =         480        mffmem =           1         mkmem =           1
       mpw =         995          nfft =       27000          nkpt =          29
================================================================================
P This job should need less than                      23.995 Mbytes of memory.
  Rough estimation (10% accuracy) of disk space for files :
_ WF disk file :    211.342 Mbytes ; DEN or POT disk file :      0.208 Mbytes.
================================================================================

--------------------------------------------------------------------------------
------------- Echo of variables that govern the present computation ------------
--------------------------------------------------------------------------------
-
- outvars: echo of selected default values                                      
-   iomode0 =  0 , fftalg0 =312 , wfoptalg0 =  0
-
- outvars: echo of global parameters not present in the input file              
-  max_nthreads =    0
-
 -outvars: echo values of preprocessed input variables --------
            acell      1.0260000000E+01  1.0260000000E+01  1.0260000000E+01 Bohr
              amu      2.80855000E+01
             bdgw           1       5       1       5
           diemac      1.20000000E+01
             ecut      1.80000000E+01 Hartree
          ecuteps      1.20000000E+01 Hartree
         ecutsigx      3.60000000E+01 Hartree
          ecutwfn      1.80000000E+01 Hartree
-          fftalg         312
           getscr1          0
           getscr2         -1
        gwcalctyp           1
           istwfk        1    0    0    0    1    0    0    0    0    0
                         0    0    0    0    0    0    0    0    0    0
                         1    0    0    0    0    0    0    0    0
              ixc          11
           jdtset        1    2
              kpt      0.00000000E+00  0.00000000E+00  0.00000000E+00
                       1.25000000E-01  0.00000000E+00  0.00000000E+00
                       2.50000000E-01  0.00000000E+00  0.00000000E+00
                       3.75000000E-01  0.00000000E+00  0.00000000E+00
                       5.00000000E-01  0.00000000E+00  0.00000000E+00
                       1.25000000E-01  1.25000000E-01  0.00000000E+00
                       2.50000000E-01  1.25000000E-01  0.00000000E+00
                       3.75000000E-01  1.25000000E-01  0.00000000E+00
                       5.00000000E-01  1.25000000E-01  0.00000000E+00
                      -3.75000000E-01  1.25000000E-01  0.00000000E+00
                      -2.50000000E-01  1.25000000E-01  0.00000000E+00
                      -1.25000000E-01  1.25000000E-01  0.00000000E+00
                       2.50000000E-01  2.50000000E-01  0.00000000E+00
                       3.75000000E-01  2.50000000E-01  0.00000000E+00
                       5.00000000E-01  2.50000000E-01  0.00000000E+00
                      -3.75000000E-01  2.50000000E-01  0.00000000E+00
                      -2.50000000E-01  2.50000000E-01  0.00000000E+00
                       3.75000000E-01  3.75000000E-01  0.00000000E+00
                       5.00000000E-01  3.75000000E-01  0.00000000E+00
                      -3.75000000E-01  3.75000000E-01  0.00000000E+00
                       5.00000000E-01  5.00000000E-01  0.00000000E+00
                       3.75000000E-01  2.50000000E-01  1.25000000E-01
                       5.00000000E-01  2.50000000E-01  1.25000000E-01
                      -3.75000000E-01  2.50000000E-01  1.25000000E-01
                       5.00000000E-01  3.75000000E-01  1.25000000E-01
                      -3.75000000E-01  3.75000000E-01  1.25000000E-01
                      -2.50000000E-01  3.75000000E-01  1.25000000E-01
                      -3.75000000E-01  5.00000000E-01  1.25000000E-01
                      -2.50000000E-01  5.00000000E-01  2.50000000E-01
            kptgw      0.00000000E+00  0.00000000E+00  0.00000000E+00
                       5.00000000E-01  5.00000000E-01  0.00000000E+00
         kptrlatt        8    0    0      0    8    0      0    0    8
          kptrlen      5.80393246E+01
P           mkmem           1
            natom           2
            nband         480
           ndtset           2
          nfreqim          12
            ngfft          30      30      30
             nkpt          29
           nkptgw           2
           npweps         531
          npwsigx        2733
           npwwfn         941
            nstep          50
             nsym          48
           ntypat           1
              occ      2.000000  2.000000  2.000000  2.000000  0.000000  0.000000
                       0.000000  0.000000  0.000000  0.000000  0.000000  0.000000
                       0.000000  0.000000  0.000000  0.000000  0.000000  0.000000
                       0.000000  0.000000  0.000000  0.000000  0.000000  0.000000
                       0.000000  0.000000  0.000000  0.000000  0.000000  0.000000
                       0.000000  0.000000  0.000000  0.000000  0.000000  0.000000
                       0.000000  0.000000  0.000000  0.000000  0.000000  0.000000
                       0.000000  0.000000  0.000000  0.000000  0.000000  0.000000
                       0.000000  0.000000  0.000000  0.000000  0.000000  0.000000
                       0.000000  0.000000  0.000000  0.000000  0.000000  0.000000
                       0.000000  0.000000  0.000000  0.000000  0.000000  0.000000
                       0.000000  0.000000  0.000000  0.000000  0.000000  0.000000
                       0.000000  0.000000  0.000000  0.000000  0.000000  0.000000
                       0.000000  0.000000  0.000000  0.000000  0.000000  0.000000
                       0.000000  0.000000  0.000000  0.000000  0.000000  0.000000
                       0.000000  0.000000  0.000000  0.000000  0.000000  0.000000
                       0.000000  0.000000  0.000000  0.000000  0.000000  0.000000
                       0.000000  0.000000  0.000000  0.000000  0.000000  0.000000
                       0.000000  0.000000  0.000000  0.000000  0.000000  0.000000
                       0.000000  0.000000  0.000000  0.000000  0.000000  0.000000
                       0.000000  0.000000  0.000000  0.000000  0.000000  0.000000
                       0.000000  0.000000  0.000000  0.000000  0.000000  0.000000
                       0.000000  0.000000  0.000000  0.000000  0.000000  0.000000
                       0.000000  0.000000  0.000000  0.000000  0.000000  0.000000
                       0.000000  0.000000  0.000000  0.000000  0.000000  0.000000
                       0.000000  0.000000  0.000000  0.000000  0.000000  0.000000
                       0.000000  0.000000  0.000000  0.000000  0.000000  0.000000
                       0.000000  0.000000  0.000000  0.000000  0.000000  0.000000
                       0.000000  0.000000  0.000000  0.000000  0.000000  0.000000
                       0.000000  0.000000  0.000000  0.000000  0.000000  0.000000
                       0.000000  0.000000  0.000000  0.000000  0.000000  0.000000
                       0.000000  0.000000  0.000000  0.000000  0.000000  0.000000
                       0.000000  0.000000  0.000000  0.000000  0.000000  0.000000
                       0.000000  0.000000  0.000000  0.000000  0.000000  0.000000
                       0.000000  0.000000  0.000000  0.000000  0.000000  0.000000
                       0.000000  0.000000  0.000000  0.000000  0.000000  0.000000
                       0.000000  0.000000  0.000000  0.000000  0.000000  0.000000
                       0.000000  0.000000  0.000000  0.000000  0.000000  0.000000
                       0.000000  0.000000  0.000000  0.000000  0.000000  0.000000
                       0.000000  0.000000  0.000000  0.000000  0.000000  0.000000
                       0.000000  0.000000  0.000000  0.000000  0.000000  0.000000
                       0.000000  0.000000  0.000000  0.000000  0.000000  0.000000
                       0.000000  0.000000  0.000000  0.000000  0.000000  0.000000
                       0.000000  0.000000  0.000000  0.000000  0.000000  0.000000
                       0.000000  0.000000  0.000000  0.000000  0.000000  0.000000
                       0.000000  0.000000  0.000000  0.000000  0.000000  0.000000
                       0.000000  0.000000  0.000000  0.000000  0.000000  0.000000
                       0.000000  0.000000  0.000000  0.000000  0.000000  0.000000
                       0.000000  0.000000  0.000000  0.000000  0.000000  0.000000
                       0.000000  0.000000  0.000000  0.000000  0.000000  0.000000
                       0.000000  0.000000  0.000000  0.000000  0.000000  0.000000
                       0.000000  0.000000  0.000000  0.000000  0.000000  0.000000
                       0.000000  0.000000  0.000000  0.000000  0.000000  0.000000
                       0.000000  0.000000  0.000000  0.000000  0.000000  0.000000
                       0.000000  0.000000  0.000000  0.000000  0.000000  0.000000
                       0.000000  0.000000  0.000000  0.000000  0.000000  0.000000
                       0.000000  0.000000  0.000000  0.000000  0.000000  0.000000
                       0.000000  0.000000  0.000000  0.000000  0.000000  0.000000
                       0.000000  0.000000  0.000000  0.000000  0.000000  0.000000
                       0.000000  0.000000  0.000000  0.000000  0.000000  0.000000
                       0.000000  0.000000  0.000000  0.000000  0.000000  0.000000
                       0.000000  0.000000  0.000000  0.000000  0.000000  0.000000
                       0.000000  0.000000  0.000000  0.000000  0.000000  0.000000
                       0.000000  0.000000  0.000000  0.000000  0.000000  0.000000
                       0.000000  0.000000  0.000000  0.000000  0.000000  0.000000
                       0.000000  0.000000  0.000000  0.000000  0.000000  0.000000
                       0.000000  0.000000  0.000000  0.000000  0.000000  0.000000
                       0.000000  0.000000  0.000000  0.000000  0.000000  0.000000
                       0.000000  0.000000  0.000000  0.000000  0.000000  0.000000
                       0.000000  0.000000  0.000000  0.000000  0.000000  0.000000
                       0.000000  0.000000  0.000000  0.000000  0.000000  0.000000
                       0.000000  0.000000  0.000000  0.000000  0.000000  0.000000
                       0.000000  0.000000  0.000000  0.000000  0.000000  0.000000
                       0.000000  0.000000  0.000000  0.000000  0.000000  0.000000
                       0.000000  0.000000  0.000000  0.000000  0.000000  0.000000
                       0.000000  0.000000  0.000000  0.000000  0.000000  0.000000
                       0.000000  0.000000  0.000000  0.000000  0.000000  0.000000
                       0.000000  0.000000  0.000000  0.000000  0.000000  0.000000
                       0.000000  0.000000  0.000000  0.000000  0.000000  0.000000
                       0.000000  0.000000  0.000000  0.000000  0.000000  0.000000
       omegasimax      4.40991905E-01 Hartree
        optdriver1          3
        optdriver2          4
            rprim      0.0000000000E+00  5.0000000000E-01  5.0000000000E-01
                       5.0000000000E-01  0.0000000000E+00  5.0000000000E-01
                       5.0000000000E-01  5.0000000000E-01  0.0000000000E+00
          spgroup         227
           symrel      1  0  0   0  1  0   0  0  1      -1  0  0   0 -1  0   0  0 -1
                       0 -1  1   0 -1  0   1 -1  0       0  1 -1   0  1  0  -1  1  0
                      -1  0  0  -1  0  1  -1  1  0       1  0  0   1  0 -1   1 -1  0
                       0  1 -1   1  0 -1   0  0 -1       0 -1  1  -1  0  1   0  0  1
                      -1  0  0  -1  1  0  -1  0  1       1  0  0   1 -1  0   1  0 -1
                       0 -1  1   1 -1  0   0 -1  0       0  1 -1  -1  1  0   0  1  0
                       1  0  0   0  0  1   0  1  0      -1  0  0   0  0 -1   0 -1  0
                       0  1 -1   0  0 -1   1  0 -1       0 -1  1   0  0  1  -1  0  1
                      -1  0  1  -1  1  0  -1  0  0       1  0 -1   1 -1  0   1  0  0
                       0 -1  0   1 -1  0   0 -1  1       0  1  0  -1  1  0   0  1 -1
                       1  0 -1   0  0 -1   0  1 -1      -1  0  1   0  0  1   0 -1  1
                       0  1  0   0  0  1   1  0  0       0 -1  0   0  0 -1  -1  0  0
                       1  0 -1   0  1 -1   0  0 -1      -1  0  1   0 -1  1   0  0  1
                       0 -1  0   0 -1  1   1 -1  0       0  1  0   0  1 -1  -1  1  0
                      -1  0  1  -1  0  0  -1  1  0       1  0 -1   1  0  0   1 -1  0
                       0  1  0   1  0  0   0  0  1       0 -1  0  -1  0  0   0  0 -1
                       0  0 -1   0  1 -1   1  0 -1       0  0  1   0 -1  1  -1  0  1
                       1 -1  0   0 -1  1   0 -1  0      -1  1  0   0  1 -1   0  1  0
                       0  0  1   1  0  0   0  1  0       0  0 -1  -1  0  0   0 -1  0
                      -1  1  0  -1  0  0  -1  0  1       1 -1  0   1  0  0   1  0 -1
                       0  0  1   0  1  0   1  0  0       0  0 -1   0 -1  0  -1  0  0
                       1 -1  0   0 -1  0   0 -1  1      -1  1  0   0  1  0   0  1 -1
                       0  0 -1   1  0 -1   0  1 -1       0  0  1  -1  0  1   0 -1  1
                      -1  1  0  -1  0  1  -1  0  0       1 -1  0   1  0 -1   1  0  0
           timopt          -1
            tnons      0.0000000  0.0000000  0.0000000     0.2500000  0.2500000  0.2500000
                       0.0000000  0.0000000  0.0000000     0.2500000  0.2500000  0.2500000
                       0.0000000  0.0000000  0.0000000     0.2500000  0.2500000  0.2500000
                       0.0000000  0.0000000  0.0000000     0.2500000  0.2500000  0.2500000
                       0.0000000  0.0000000  0.0000000     0.2500000  0.2500000  0.2500000
                       0.0000000  0.0000000  0.0000000     0.2500000  0.2500000  0.2500000
                       0.0000000  0.0000000  0.0000000     0.2500000  0.2500000  0.2500000
                       0.0000000  0.0000000  0.0000000     0.2500000  0.2500000  0.2500000
                       0.0000000  0.0000000  0.0000000     0.2500000  0.2500000  0.2500000
                       0.0000000  0.0000000  0.0000000     0.2500000  0.2500000  0.2500000
                       0.0000000  0.0000000  0.0000000     0.2500000  0.2500000  0.2500000
                       0.0000000  0.0000000  0.0000000     0.2500000  0.2500000  0.2500000
                       0.0000000  0.0000000  0.0000000     0.2500000  0.2500000  0.2500000
                       0.0000000  0.0000000  0.0000000     0.2500000  0.2500000  0.2500000
                       0.0000000  0.0000000  0.0000000     0.2500000  0.2500000  0.2500000
                       0.0000000  0.0000000  0.0000000     0.2500000  0.2500000  0.2500000
                       0.0000000  0.0000000  0.0000000     0.2500000  0.2500000  0.2500000
                       0.0000000  0.0000000  0.0000000     0.2500000  0.2500000  0.2500000
                       0.0000000  0.0000000  0.0000000     0.2500000  0.2500000  0.2500000
                       0.0000000  0.0000000  0.0000000     0.2500000  0.2500000  0.2500000
                       0.0000000  0.0000000  0.0000000     0.2500000  0.2500000  0.2500000
                       0.0000000  0.0000000  0.0000000     0.2500000  0.2500000  0.2500000
                       0.0000000  0.0000000  0.0000000     0.2500000  0.2500000  0.2500000
                       0.0000000  0.0000000  0.0000000     0.2500000  0.2500000  0.2500000
            typat      1  1
              wtk        0.00195    0.01563    0.01563    0.01563    0.00781    0.01172
                         0.04688    0.04688    0.04688    0.04688    0.04688    0.02344
                         0.01172    0.04688    0.04688    0.04688    0.02344    0.01172
                         0.04688    0.02344    0.00586    0.04688    0.09375    0.04688
                         0.04688    0.09375    0.04688    0.02344    0.01172
           xangst      0.0000000000E+00  0.0000000000E+00  0.0000000000E+00
                       1.3573395400E+00  1.3573395400E+00  1.3573395400E+00
            xcart      0.0000000000E+00  0.0000000000E+00  0.0000000000E+00
                       2.5650000000E+00  2.5650000000E+00  2.5650000000E+00
             xred      0.0000000000E+00  0.0000000000E+00  0.0000000000E+00
                       2.5000000000E-01  2.5000000000E-01  2.5000000000E-01
            znucl       14.00000

================================================================================

 chkinp: Checking input parameters for consistency, jdtset=   1.

 chkinp: Checking input parameters for consistency, jdtset=   2.

================================================================================
== DATASET  1 ==================================================================
-   mpi_nproc: 256, omp_nthreads: -1 (-1 if OMP is not activated)


--- !DatasetInfo
iteration_state: {dtset: 1, }
dimensions: {natom: 2, nkpt: 29, mband: 480, nsppol: 1, nspinor: 1, nspden: 1, mpw: 995, }
cutoff_energies: {ecut:  18.0, pawecutdg:  -1.0, }
electrons: {nelect:   8.00000000E+00, charge:   0.00000000E+00, occopt:   1.00000000E+00, tsmear:   1.00000000E-02, }
meta: {optdriver: 3, gwcalctyp: 1, }
...

 mkfilename: getwfk from: ../outdata_gs_DS2_WFK

 Exchange-correlation functional for the present dataset will be:
  GGA: Perdew-Burke-Ernzerhof functional - ixc=11
 Citation for XC functional:
  J.P.Perdew, K.Burke, M.Ernzerhof, PRL 77, 3865 (1996)

 SCREENING: Calculation of the susceptibility and dielectric matrices 

 Based on a program developped by R.W. Godby, V. Olevano, G. Onida, and L. Reining.
 Incorporated in ABINIT by V. Olevano, G.-M. Rignanese, and M. Torrent.
.Using single precision arithmetic ; gwpc =  4

 Real(R)+Recip(G) space primitive vectors, cartesian coordinates (Bohr,Bohr^-1):
 R(1)=  0.0000000  5.1300000  5.1300000  G(1)= -0.0974659  0.0974659  0.0974659
 R(2)=  5.1300000  0.0000000  5.1300000  G(2)=  0.0974659 -0.0974659  0.0974659
 R(3)=  5.1300000  5.1300000  0.0000000  G(3)=  0.0974659  0.0974659 -0.0974659
 Unit cell volume ucvol=  2.7001139E+02 bohr^3
 Angles (23,13,12)=  6.00000000E+01  6.00000000E+01  6.00000000E+01 degrees

--- Pseudopotential description ------------------------------------------------
- pspini: atom type   1  psp file is ../Si.psp8
- pspatm: opening atomic psp file    ../Si.psp8
- Si    ONCVPSP-3.2.3.1  r_core=   1.60303   1.72197   1.91712
- 14.00000   4.00000    170510                znucl, zion, pspdat
    8   11    2    4       600   0.00000      pspcod,pspxc,lmax,lloc,mmax,r2well
    5.99000000000000    4.00000000000000    0.00000000000000   rchrg,fchrg,qchrg
     nproj     2     2     2
     extension_switch     1
  pspatm : epsatm=    9.34321699
         --- l  ekb(1:nproj) -->
             0    5.168965    0.829883
             1    2.571282    0.578307
             2   -2.427311   -0.488097
 pspatm: atomic psp has been read  and splines computed

   1.49491472E+02                                ecore*ucvol(ha*bohr**3)
--------------------------------------------------------------------------------

 ==== K-mesh for the wavefunctions ====
 Number of points in the irreducible wedge :    29
 Reduced coordinates and weights : 

     1)     0.00000000E+00  0.00000000E+00  0.00000000E+00       0.00195
     2)     1.25000000E-01  0.00000000E+00  0.00000000E+00       0.01563
     3)     2.50000000E-01  0.00000000E+00  0.00000000E+00       0.01563
     4)     3.75000000E-01  0.00000000E+00  0.00000000E+00       0.01563
     5)     5.00000000E-01  0.00000000E+00  0.00000000E+00       0.00781
     6)     1.25000000E-01  1.25000000E-01  0.00000000E+00       0.01172
     7)     2.50000000E-01  1.25000000E-01  0.00000000E+00       0.04688
     8)     3.75000000E-01  1.25000000E-01  0.00000000E+00       0.04688
     9)     5.00000000E-01  1.25000000E-01  0.00000000E+00       0.04688
    10)    -3.75000000E-01  1.25000000E-01  0.00000000E+00       0.04688
    11)    -2.50000000E-01  1.25000000E-01  0.00000000E+00       0.04688
    12)    -1.25000000E-01  1.25000000E-01  0.00000000E+00       0.02344
    13)     2.50000000E-01  2.50000000E-01  0.00000000E+00       0.01172
    14)     3.75000000E-01  2.50000000E-01  0.00000000E+00       0.04688
    15)     5.00000000E-01  2.50000000E-01  0.00000000E+00       0.04688
    16)    -3.75000000E-01  2.50000000E-01  0.00000000E+00       0.04688
    17)    -2.50000000E-01  2.50000000E-01  0.00000000E+00       0.02344
    18)     3.75000000E-01  3.75000000E-01  0.00000000E+00       0.01172
    19)     5.00000000E-01  3.75000000E-01  0.00000000E+00       0.04688
    20)    -3.75000000E-01  3.75000000E-01  0.00000000E+00       0.02344
    21)     5.00000000E-01  5.00000000E-01  0.00000000E+00       0.00586
    22)     3.75000000E-01  2.50000000E-01  1.25000000E-01       0.04688
    23)     5.00000000E-01  2.50000000E-01  1.25000000E-01       0.09375
    24)    -3.75000000E-01  2.50000000E-01  1.25000000E-01       0.04688
    25)     5.00000000E-01  3.75000000E-01  1.25000000E-01       0.04688
    26)    -3.75000000E-01  3.75000000E-01  1.25000000E-01       0.09375
    27)    -2.50000000E-01  3.75000000E-01  1.25000000E-01       0.04688
    28)    -3.75000000E-01  5.00000000E-01  1.25000000E-01       0.02344
    29)    -2.50000000E-01  5.00000000E-01  2.50000000E-01       0.01172

 Together with 48 symmetry operations and time-reversal symmetry 
 yields   512 points in the full Brillouin Zone.


 ==== Q-mesh for the screening function ====
 Number of points in the irreducible wedge :    29
 Reduced coordinates and weights : 

     1)     0.00000000E+00  0.00000000E+00  0.00000000E+00       0.00195
     2)     1.25000000E-01  0.00000000E+00  0.00000000E+00       0.01563
     3)     2.50000000E-01  0.00000000E+00  0.00000000E+00       0.01563
     4)     3.75000000E-01  0.00000000E+00  0.00000000E+00       0.01563
     5)     5.00000000E-01  0.00000000E+00  0.00000000E+00       0.00781
     6)     1.25000000E-01  1.25000000E-01  0.00000000E+00       0.01172
     7)     2.50000000E-01  1.25000000E-01  0.00000000E+00       0.04688
     8)     3.75000000E-01  1.25000000E-01  0.00000000E+00       0.04688
     9)     5.00000000E-01  1.25000000E-01  0.00000000E+00       0.04688
    10)    -3.75000000E-01  1.25000000E-01  0.00000000E+00       0.04688
    11)    -2.50000000E-01  1.25000000E-01  0.00000000E+00       0.04688
    12)    -1.25000000E-01  1.25000000E-01  0.00000000E+00       0.02344
    13)     2.50000000E-01  2.50000000E-01  0.00000000E+00       0.01172
    14)     3.75000000E-01  2.50000000E-01  0.00000000E+00       0.04688
    15)     5.00000000E-01  2.50000000E-01  0.00000000E+00       0.04688
    16)    -3.75000000E-01  2.50000000E-01  0.00000000E+00       0.04688
    17)    -2.50000000E-01  2.50000000E-01  0.00000000E+00       0.02344
    18)     3.75000000E-01  3.75000000E-01  0.00000000E+00       0.01172
    19)     5.00000000E-01  3.75000000E-01  0.00000000E+00       0.04688
    20)    -3.75000000E-01  3.75000000E-01  0.00000000E+00       0.02344
    21)     5.00000000E-01  5.00000000E-01  0.00000000E+00       0.00586
    22)     3.75000000E-01  2.50000000E-01  1.25000000E-01       0.04688
    23)     5.00000000E-01  2.50000000E-01  1.25000000E-01       0.09375
    24)    -3.75000000E-01  2.50000000E-01  1.25000000E-01       0.04688
    25)     5.00000000E-01  3.75000000E-01  1.25000000E-01       0.04688
    26)    -3.75000000E-01  3.75000000E-01  1.25000000E-01       0.09375
    27)    -2.50000000E-01  3.75000000E-01  1.25000000E-01       0.04688
    28)    -3.75000000E-01  5.00000000E-01  1.25000000E-01       0.02344
    29)    -2.50000000E-01  5.00000000E-01  2.50000000E-01       0.01172

 Together with 48 symmetry operations and time-reversal symmetry 
 yields   512 points in the full Brillouin Zone.


 setmesh: FFT mesh size selected  =    32x   32x   32
          total number of points  =        32768


- screening: taking advantage of time-reversal symmetry 
- Maximum band index for partially occupied states nbvw = 4
- Remaining bands to be divided among processors   nbcw = 476
- Number of bands treated by each node ~1

 Number of electrons calculated from density =    8.0000; Expected =    8.0000
 average of density, n =  0.029628
 r_s =    2.0048
 omega_plasma =   16.6039 [eV]


 calculating chi0 at frequencies [eV] :
  1    0.000000E+00    0.000000E+00
  2    0.000000E+00    2.924233E+03
  3    0.000000E+00    5.403857E+02
  4    0.000000E+00    2.093093E+02
  5    0.000000E+00    1.046644E+02
  6    0.000000E+00    5.887764E+01
  7    0.000000E+00    3.500266E+01
  8    0.000000E+00    2.115438E+01
  9    0.000000E+00    1.257624E+01
 10    0.000000E+00    7.074606E+00
 11    0.000000E+00    3.537633E+00
 12    0.000000E+00    1.370242E+00
 13    0.000000E+00    2.532149E-01


--------------------------------------------------------------------------------
  q-point number  1        q = ( 0.000000, 0.000000, 0.000000) [r.l.u.]
--------------------------------------------------------------------------------
  chi0(G,G') at the    1 th omega   0.0000   0.0000 [eV]
       1       2       3       4       5       6       7       8       9
    1  -0.000   0.000  -0.000  -0.000   0.000   0.000  -0.000  -0.000   0.000
        0.000   0.000   0.000  -0.000  -0.000   0.000   0.000  -0.000  -0.000

    2   0.000 -18.939  -0.000  -0.094   0.000  -0.094  -0.000  -0.094   0.000
       -0.000   0.000  -4.558  -0.000  -0.263   0.000  -0.263  -0.000  -0.263

  chi0(G,G') at the    2 th omega   0.00002924.2333 [eV]
       1       2       3       4       5       6       7       8       9
    1  -0.000   0.000  -0.000  -0.000   0.000   0.000  -0.000  -0.000   0.000
        0.000   0.000   0.000  -0.000  -0.000   0.000   0.000  -0.000  -0.000

    2   0.000  -0.001   0.000  -0.000  -0.000  -0.000  -0.000  -0.000  -0.000
       -0.000   0.000  -0.000  -0.000  -0.000   0.000  -0.000   0.000  -0.000

  chi0(G,G') at the    3 th omega   0.0000 540.3857 [eV]
       1       2       3       4       5       6       7       8       9
    1  -0.000   0.000  -0.000  -0.000   0.000   0.000  -0.000  -0.000   0.000
        0.000   0.000   0.000  -0.000  -0.000   0.000   0.000  -0.000  -0.000

    2   0.000  -0.022   0.000  -0.001  -0.000  -0.001  -0.000  -0.001  -0.000
       -0.000   0.000  -0.001  -0.000  -0.000   0.000  -0.000   0.000  -0.000

  chi0(G,G') at the    4 th omega   0.0000 209.3093 [eV]
       1       2       3       4       5       6       7       8       9
    1  -0.000   0.000  -0.000  -0.000   0.000   0.000  -0.000  -0.000   0.000
        0.000   0.000   0.000  -0.000  -0.000   0.000   0.000  -0.000  -0.000

    2   0.000  -0.142   0.000  -0.003  -0.000  -0.003  -0.000  -0.003  -0.000
       -0.000   0.000  -0.006  -0.000  -0.000   0.000  -0.000   0.000  -0.000

  chi0(G,G') at the    5 th omega   0.0000 104.6644 [eV]
       1       2       3       4       5       6       7       8       9
    1  -0.000   0.000  -0.000  -0.000   0.000   0.000  -0.000  -0.000   0.000
       -0.000   0.000   0.000  -0.000  -0.000   0.000   0.000  -0.000  -0.000

    2   0.000  -0.532   0.000  -0.013  -0.000  -0.013  -0.000  -0.013  -0.000
       -0.000   0.000  -0.027  -0.000  -0.002   0.000  -0.002   0.000  -0.002

  chi0(G,G') at the    6 th omega   0.0000  58.8776 [eV]
       1       2       3       4       5       6       7       8       9
    1  -0.000   0.000  -0.000  -0.000   0.000   0.000  -0.000  -0.000   0.000
       -0.000   0.000   0.000  -0.000  -0.000   0.000   0.000  -0.000  -0.000

    2   0.000  -1.475   0.000  -0.034  -0.000  -0.034  -0.000  -0.034  -0.000
       -0.000   0.000  -0.091  -0.000  -0.010   0.000  -0.010   0.000  -0.010

  chi0(G,G') at the    7 th omega   0.0000  35.0027 [eV]
       1       2       3       4       5       6       7       8       9
    1  -0.000   0.000  -0.000  -0.000   0.000   0.000  -0.000  -0.000   0.000
       -0.000   0.000   0.000  -0.000  -0.000   0.000   0.000  -0.000  -0.000

    2   0.000  -3.299   0.000  -0.057  -0.000  -0.057  -0.000  -0.057  -0.000
       -0.000   0.000  -0.269  -0.000  -0.038   0.000  -0.038   0.000  -0.038

  chi0(G,G') at the    8 th omega   0.0000  21.1544 [eV]
       1       2       3       4       5       6       7       8       9
    1  -0.000   0.000  -0.000  -0.000   0.000   0.000  -0.000  -0.000   0.000
        0.000   0.000   0.000  -0.000  -0.000   0.000   0.000  -0.000  -0.000

    2   0.000  -6.173  -0.000  -0.053   0.000  -0.053  -0.000  -0.053  -0.000
       -0.000   0.000  -0.685  -0.000  -0.094   0.000  -0.094   0.000  -0.094

  chi0(G,G') at the    9 th omega   0.0000  12.5762 [eV]
       1       2       3       4       5       6       7       8       9
    1  -0.000   0.000  -0.000  -0.000   0.000   0.000  -0.000  -0.000   0.000
       -0.000   0.000   0.000  -0.000  -0.000   0.000   0.000  -0.000  -0.000

    2   0.000  -9.870  -0.000  -0.011   0.000  -0.011  -0.000  -0.011  -0.000
       -0.000   0.000  -1.454  -0.000  -0.157   0.000  -0.157   0.000  -0.157

  chi0(G,G') at the   10 th omega   0.0000   7.0746 [eV]
       1       2       3       4       5       6       7       8       9
    1  -0.000   0.000  -0.000  -0.000   0.000   0.000  -0.000  -0.000   0.000
       -0.000   0.000   0.000  -0.000  -0.000   0.000   0.000  -0.000  -0.000

    2   0.000 -13.736  -0.000   0.016   0.000   0.016  -0.000   0.016   0.000
       -0.000   0.000  -2.535  -0.000  -0.195   0.000  -0.195   0.000  -0.195

  chi0(G,G') at the   11 th omega   0.0000   3.5376 [eV]
       1       2       3       4       5       6       7       8       9
    1  -0.000   0.000  -0.000  -0.000   0.000   0.000  -0.000  -0.000   0.000
       -0.000   0.000   0.000  -0.000  -0.000   0.000   0.000  -0.000  -0.000

    2   0.000 -16.881  -0.000  -0.023   0.000  -0.023  -0.000  -0.023   0.000
       -0.000   0.000  -3.658  -0.000  -0.224   0.000  -0.224   0.000  -0.224

  chi0(G,G') at the   12 th omega   0.0000   1.3702 [eV]
       1       2       3       4       5       6       7       8       9
    1  -0.000   0.000  -0.000  -0.000   0.000   0.000  -0.000  -0.000   0.000
        0.000   0.000   0.000  -0.000  -0.000   0.000   0.000  -0.000  -0.000

    2   0.000 -18.542  -0.000  -0.078   0.000  -0.078  -0.000  -0.078   0.000
       -0.000   0.000  -4.371  -0.000  -0.253   0.000  -0.253   0.000  -0.253

  chi0(G,G') at the   13 th omega   0.0000   0.2532 [eV]
       1       2       3       4       5       6       7       8       9
    1  -0.000   0.000  -0.000  -0.000   0.000   0.000  -0.000  -0.000   0.000
        0.000   0.000   0.000  -0.000  -0.000   0.000   0.000  -0.000  -0.000

    2   0.000 -18.925  -0.000  -0.094   0.000  -0.094  -0.000  -0.094   0.000
       -0.000   0.000  -4.551  -0.000  -0.262   0.000  -0.262   0.000  -0.262

 For q-point:  0.000010 0.000020 0.000030
  dielectric constant =  13.2041
  dielectric constant without local fields =  14.6448

  Average fulfillment of the sum rule on Im[epsilon] for q-point    1 :     95.71  [%]
  Heads and wings of the symmetrical epsilon^-1(G,G') 

   Upper and lower wings at the    1 th omega   0.0000   0.0000 [eV]
       1       2       3       4       5       6       7       8       9
      0.076   0.006  -0.006  -0.017   0.017   0.017  -0.017  -0.006   0.006
     -0.000   0.006   0.006  -0.017  -0.017   0.017   0.017  -0.006  -0.006
       1       2       3       4       5       6       7       8       9
      0.076   0.006  -0.006  -0.017   0.017   0.017  -0.017  -0.006   0.006
     -0.000  -0.006  -0.006   0.017   0.017  -0.017  -0.017   0.006   0.006


   Upper and lower wings at the    2 th omega   0.00002924.2333 [eV]
       1       2       3       4       5       6       7       8       9
      1.000   0.000  -0.000  -0.000   0.000   0.000  -0.000  -0.000   0.000
     -0.000   0.000   0.000  -0.000  -0.000   0.000   0.000  -0.000  -0.000
       1       2       3       4       5       6       7       8       9
      1.000   0.000  -0.000  -0.000   0.000   0.000  -0.000  -0.000   0.000
     -0.000  -0.000  -0.000   0.000   0.000  -0.000  -0.000   0.000   0.000


   Upper and lower wings at the    3 th omega   0.0000 540.3857 [eV]
       1       2       3       4       5       6       7       8       9
      0.999   0.000  -0.000  -0.000   0.000   0.000  -0.000  -0.000   0.000
     -0.000   0.000   0.000  -0.000  -0.000   0.000   0.000  -0.000  -0.000
       1       2       3       4       5       6       7       8       9
      0.999   0.000  -0.000  -0.000   0.000   0.000  -0.000  -0.000   0.000
     -0.000  -0.000  -0.000   0.000   0.000  -0.000  -0.000   0.000   0.000


   Upper and lower wings at the    4 th omega   0.0000 209.3093 [eV]
       1       2       3       4       5       6       7       8       9
      0.994   0.000  -0.000  -0.001   0.001   0.001  -0.001  -0.000   0.000
     -0.000   0.000   0.000  -0.001  -0.001   0.001   0.001  -0.000  -0.000
       1       2       3       4       5       6       7       8       9
      0.994   0.000  -0.000  -0.001   0.001   0.001  -0.001  -0.000   0.000
     -0.000  -0.000  -0.000   0.001   0.001  -0.001  -0.001   0.000   0.000


   Upper and lower wings at the    5 th omega   0.0000 104.6644 [eV]
       1       2       3       4       5       6       7       8       9
      0.977   0.001  -0.001  -0.002   0.002   0.002  -0.002  -0.001   0.001
      0.000   0.001   0.001  -0.002  -0.002   0.002   0.002  -0.001  -0.001
       1       2       3       4       5       6       7       8       9
      0.977   0.001  -0.001  -0.002   0.002   0.002  -0.002  -0.001   0.001
      0.000  -0.001  -0.001   0.002   0.002  -0.002  -0.002   0.001   0.001


   Upper and lower wings at the    6 th omega   0.0000  58.8776 [eV]
       1       2       3       4       5       6       7       8       9
      0.932   0.002  -0.002  -0.006   0.006   0.006  -0.006  -0.002   0.002
      0.000   0.002   0.002  -0.006  -0.006   0.006   0.006  -0.002  -0.002
       1       2       3       4       5       6       7       8       9
      0.932   0.002  -0.002  -0.006   0.006   0.006  -0.006  -0.002   0.002
      0.000  -0.002  -0.002   0.006   0.006  -0.006  -0.006   0.002   0.002


   Upper and lower wings at the    7 th omega   0.0000  35.0027 [eV]
       1       2       3       4       5       6       7       8       9
      0.835   0.004  -0.004  -0.013   0.013   0.013  -0.013  -0.004   0.004
      0.000   0.004   0.004  -0.013  -0.013   0.013   0.013  -0.004  -0.004
       1       2       3       4       5       6       7       8       9
      0.835   0.004  -0.004  -0.013   0.013   0.013  -0.013  -0.004   0.004
      0.000  -0.004  -0.004   0.013   0.013  -0.013  -0.013   0.004   0.004


   Upper and lower wings at the    8 th omega   0.0000  21.1544 [eV]
       1       2       3       4       5       6       7       8       9
      0.664   0.007  -0.007  -0.022   0.022   0.022  -0.022  -0.007   0.007
     -0.000   0.007   0.007  -0.022  -0.022   0.022   0.022  -0.007  -0.007
       1       2       3       4       5       6       7       8       9
      0.664   0.007  -0.007  -0.022   0.022   0.022  -0.022  -0.007   0.007
     -0.000  -0.007  -0.007   0.022   0.022  -0.022  -0.022   0.007   0.007


   Upper and lower wings at the    9 th omega   0.0000  12.5762 [eV]
       1       2       3       4       5       6       7       8       9
      0.443   0.009  -0.009  -0.027   0.027   0.027  -0.027  -0.009   0.009
      0.000   0.009   0.009  -0.027  -0.027   0.027   0.027  -0.009  -0.009
       1       2       3       4       5       6       7       8       9
      0.443   0.009  -0.009  -0.027   0.027   0.027  -0.027  -0.009   0.009
      0.000  -0.009  -0.009   0.027   0.027  -0.027  -0.027   0.009   0.009


   Upper and lower wings at the   10 th omega   0.0000   7.0746 [eV]
       1       2       3       4       5       6       7       8       9
      0.247   0.009  -0.009  -0.027   0.027   0.027  -0.027  -0.009   0.009
     -0.000   0.009   0.009  -0.027  -0.027   0.027   0.027  -0.009  -0.009
       1       2       3       4       5       6       7       8       9
      0.247   0.009  -0.009  -0.027   0.027   0.027  -0.027  -0.009   0.009
     -0.000  -0.009  -0.009   0.027   0.027  -0.027  -0.027   0.009   0.009


   Upper and lower wings at the   11 th omega   0.0000   3.5376 [eV]
       1       2       3       4       5       6       7       8       9
      0.131   0.007  -0.007  -0.022   0.022   0.022  -0.022  -0.007   0.007
      0.000   0.007   0.007  -0.022  -0.022   0.022   0.022  -0.007  -0.007
       1       2       3       4       5       6       7       8       9
      0.131   0.007  -0.007  -0.022   0.022   0.022  -0.022  -0.007   0.007
      0.000  -0.007  -0.007   0.022   0.022  -0.022  -0.022   0.007   0.007


   Upper and lower wings at the   12 th omega   0.0000   1.3702 [eV]
       1       2       3       4       5       6       7       8       9
      0.085   0.006  -0.006  -0.018   0.018   0.018  -0.018  -0.006   0.006
      0.000   0.006   0.006  -0.018  -0.018   0.018   0.018  -0.006  -0.006
       1       2       3       4       5       6       7       8       9
      0.085   0.006  -0.006  -0.018   0.018   0.018  -0.018  -0.006   0.006
      0.000  -0.006  -0.006   0.018   0.018  -0.018  -0.018   0.006   0.006


   Upper and lower wings at the   13 th omega   0.0000   0.2532 [eV]
       1       2       3       4       5       6       7       8       9
      0.076   0.006  -0.006  -0.017   0.017   0.017  -0.017  -0.006   0.006
     -0.000   0.006   0.006  -0.017  -0.017   0.017   0.017  -0.006  -0.006
       1       2       3       4       5       6       7       8       9
      0.076   0.006  -0.006  -0.017   0.017   0.017  -0.017  -0.006   0.006
     -0.000  -0.006  -0.006   0.017   0.017  -0.017  -0.017   0.006   0.006




--------------------------------------------------------------------------------
  q-point number  2        q = ( 0.125000, 0.000000, 0.000000) [r.l.u.]
--------------------------------------------------------------------------------
  chi0(G,G') at the    1 th omega   0.0000   0.0000 [eV]
       1       2       3       4       5       6       7       8       9
    1  -3.611  -1.248   1.559  -0.161  -1.016  -0.161  -1.016  -0.161  -1.016
        0.000  -1.248  -1.559  -0.161   1.016  -0.161   1.016  -0.161   1.016

    2  -1.248 -18.821   0.000  -0.414  -0.000  -0.414  -0.000  -0.414   0.000
        1.248   0.000  -4.350   0.000  -0.048   0.000  -0.048   0.000  -0.048

  chi0(G,G') at the    2 th omega   0.00002924.2333 [eV]
       1       2       3       4       5       6       7       8       9
    1  -0.000  -0.000   0.000   0.000  -0.000   0.000  -0.000   0.000  -0.000
        0.000  -0.000  -0.000   0.000   0.000   0.000   0.000   0.000   0.000

    2  -0.000  -0.001  -0.000  -0.000   0.000  -0.000   0.000  -0.000  -0.000
        0.000   0.000  -0.000   0.000  -0.000   0.000  -0.000   0.000  -0.000

  chi0(G,G') at the    3 th omega   0.0000 540.3857 [eV]
       1       2       3       4       5       6       7       8       9
    1  -0.000  -0.000   0.000   0.000  -0.000   0.000  -0.000   0.000  -0.000
        0.000  -0.000  -0.000   0.000   0.000   0.000   0.000   0.000   0.000

    2  -0.000  -0.028  -0.000  -0.000   0.000  -0.000   0.000  -0.000  -0.000
        0.000   0.000  -0.001   0.000  -0.000   0.000  -0.000   0.000  -0.000

  chi0(G,G') at the    4 th omega   0.0000 209.3093 [eV]
       1       2       3       4       5       6       7       8       9
    1  -0.002  -0.003   0.002   0.001  -0.001   0.001  -0.001   0.001  -0.001
        0.000  -0.003  -0.002   0.001   0.001   0.001   0.001   0.001   0.001

    2  -0.003  -0.178  -0.000  -0.003   0.000  -0.003  -0.000  -0.003  -0.000
        0.003   0.000  -0.006   0.000  -0.000   0.000  -0.000   0.000  -0.000

  chi0(G,G') at the    5 th omega   0.0000 104.6644 [eV]
       1       2       3       4       5       6       7       8       9
    1  -0.009  -0.010   0.008   0.002  -0.004   0.002  -0.004   0.002  -0.004
        0.000  -0.010  -0.008   0.002   0.004   0.002   0.004   0.002   0.004

    2  -0.010  -0.660  -0.000  -0.011   0.000  -0.011  -0.000  -0.011  -0.000
        0.010   0.000  -0.026   0.000  -0.002   0.000  -0.002   0.000  -0.002

  chi0(G,G') at the    6 th omega   0.0000  58.8776 [eV]
       1       2       3       4       5       6       7       8       9
    1  -0.027  -0.030   0.024   0.005  -0.013   0.005  -0.013   0.005  -0.013
        0.000  -0.030  -0.024   0.005   0.013   0.005   0.013   0.005   0.013

    2  -0.030  -1.776  -0.000  -0.026   0.000  -0.026  -0.000  -0.026  -0.000
        0.030   0.000  -0.089   0.000  -0.011   0.000  -0.011   0.000  -0.011

  chi0(G,G') at the    7 th omega   0.0000  35.0027 [eV]
       1       2       3       4       5       6       7       8       9
    1  -0.074  -0.075   0.062   0.012  -0.033   0.012  -0.033   0.012  -0.033
        0.000  -0.075  -0.062   0.012   0.033   0.012   0.033   0.012   0.033

    2  -0.075  -3.803  -0.000  -0.040   0.000  -0.040  -0.000  -0.040  -0.000
        0.075   0.000  -0.264   0.000  -0.040   0.000  -0.040   0.000  -0.040

  chi0(G,G') at the    8 th omega   0.0000  21.1544 [eV]
       1       2       3       4       5       6       7       8       9
    1  -0.189  -0.170   0.148   0.024  -0.080   0.024  -0.080   0.024  -0.080
        0.000  -0.170  -0.148   0.024   0.080   0.024   0.080   0.024   0.080

    2  -0.170  -6.780   0.000  -0.033   0.000  -0.033   0.000  -0.033  -0.000
        0.170   0.000  -0.673   0.000  -0.085   0.000  -0.085   0.000  -0.085

  chi0(G,G') at the    9 th omega   0.0000  12.5762 [eV]
       1       2       3       4       5       6       7       8       9
    1  -0.469  -0.349   0.327   0.037  -0.181   0.037  -0.181   0.037  -0.181
        0.000  -0.349  -0.327   0.037   0.181   0.037   0.181   0.037   0.181

    2  -0.349 -10.400   0.000  -0.014  -0.000  -0.014   0.000  -0.014  -0.000
        0.349   0.000  -1.431   0.000  -0.108   0.000  -0.108   0.000  -0.108

  chi0(G,G') at the   10 th omega   0.0000   7.0746 [eV]
       1       2       3       4       5       6       7       8       9
    1  -1.106  -0.642   0.657   0.028  -0.378   0.028  -0.378   0.028  -0.378
        0.000  -0.642  -0.657   0.028   0.378   0.028   0.378   0.028   0.378

    2  -0.642 -14.056   0.000  -0.059  -0.000  -0.059  -0.000  -0.059   0.000
        0.642   0.000  -2.492   0.000  -0.076  -0.000  -0.076   0.000  -0.076

  chi0(G,G') at the   11 th omega   0.0000   3.5376 [eV]
       1       2       3       4       5       6       7       8       9
    1  -2.235  -0.988   1.119  -0.041  -0.678  -0.041  -0.678  -0.041  -0.678
        0.000  -0.988  -1.119  -0.041   0.678  -0.041   0.678  -0.041   0.678

    2  -0.988 -16.962   0.000  -0.219   0.000  -0.219  -0.000  -0.219   0.000
        0.988   0.000  -3.557   0.000  -0.034  -0.000  -0.034   0.000  -0.034

  chi0(G,G') at the   12 th omega   0.0000   1.3702 [eV]
       1       2       3       4       5       6       7       8       9
    1  -3.285  -1.200   1.466  -0.132  -0.936  -0.132  -0.936  -0.132  -0.936
        0.000  -1.200  -1.466  -0.132   0.936  -0.132   0.936  -0.132   0.936

    2  -1.200 -18.465   0.000  -0.370  -0.000  -0.370  -0.000  -0.370   0.000
        1.200   0.000  -4.192   0.000  -0.038  -0.000  -0.038   0.000  -0.038

  chi0(G,G') at the   13 th omega   0.0000   0.2532 [eV]
       1       2       3       4       5       6       7       8       9
    1  -3.598  -1.247   1.555  -0.160  -1.012  -0.160  -1.012  -0.160  -1.012
        0.000  -1.247  -1.555  -0.160   1.012  -0.160   1.012  -0.160   1.012

    2  -1.247 -18.808   0.000  -0.413   0.000  -0.413  -0.000  -0.413   0.000
        1.247   0.000  -4.344   0.000  -0.048  -0.000  -0.048   0.000  -0.048

  Average fulfillment of the sum rule on Im[epsilon] for q-point    2 :     95.38  [%]


--------------------------------------------------------------------------------
  q-point number  3        q = ( 0.250000, 0.000000, 0.000000) [r.l.u.]
--------------------------------------------------------------------------------
  chi0(G,G') at the    1 th omega   0.0000   0.0000 [eV]
       1       2       3       4       5       6       7       8       9
    1  -8.875  -1.688   2.411  -0.954  -1.916  -0.954  -1.916  -0.954  -1.916
        0.000  -1.688  -2.411  -0.954   1.916  -0.954   1.916  -0.954   1.916

    2  -1.688 -18.504  -0.000  -0.323  -0.000  -0.323   0.000  -0.323   0.000
        1.688   0.000  -4.025  -0.000   0.012  -0.000   0.012  -0.000   0.012

  chi0(G,G') at the    2 th omega   0.00002924.2333 [eV]
       1       2       3       4       5       6       7       8       9
    1  -0.000  -0.000   0.000   0.000  -0.000   0.000  -0.000   0.000  -0.000
        0.000  -0.000  -0.000   0.000   0.000   0.000   0.000   0.000   0.000

    2  -0.000  -0.001  -0.000  -0.000   0.000  -0.000   0.000  -0.000   0.000
        0.000   0.000  -0.000  -0.000  -0.000  -0.000  -0.000  -0.000  -0.000

  chi0(G,G') at the    3 th omega   0.0000 540.3857 [eV]
       1       2       3       4       5       6       7       8       9
    1  -0.001  -0.001   0.001   0.000  -0.000   0.000  -0.000   0.000  -0.000
        0.000  -0.001  -0.001   0.000   0.000   0.000   0.000   0.000   0.000

    2  -0.001  -0.034  -0.000  -0.000   0.000  -0.000   0.000  -0.000   0.000
        0.001   0.000  -0.001  -0.000  -0.000  -0.000  -0.000  -0.000  -0.000

  chi0(G,G') at the    4 th omega   0.0000 209.3093 [eV]
       1       2       3       4       5       6       7       8       9
    1  -0.009  -0.006   0.004   0.000  -0.003   0.000  -0.003   0.000  -0.003
        0.000  -0.006  -0.004   0.000   0.003   0.000   0.003   0.000   0.003

    2  -0.006  -0.219  -0.000  -0.002  -0.000  -0.002   0.000  -0.002   0.000
        0.006   0.000  -0.006  -0.000  -0.000  -0.000  -0.000  -0.000  -0.000

  chi0(G,G') at the    5 th omega   0.0000 104.6644 [eV]
       1       2       3       4       5       6       7       8       9
    1  -0.035  -0.023   0.014   0.001  -0.011   0.001  -0.011   0.001  -0.011
        0.000  -0.023  -0.014   0.001   0.011   0.001   0.011   0.001   0.011

    2  -0.023  -0.795  -0.000  -0.007   0.000  -0.007   0.000  -0.007   0.000
        0.023   0.000  -0.025  -0.000  -0.002  -0.000  -0.002  -0.000  -0.002

  chi0(G,G') at the    6 th omega   0.0000  58.8776 [eV]
       1       2       3       4       5       6       7       8       9
    1  -0.108  -0.066   0.042   0.003  -0.033   0.003  -0.033   0.003  -0.033
        0.000  -0.066  -0.042   0.003   0.033   0.003   0.033   0.003   0.033

    2  -0.066  -2.070  -0.000  -0.016   0.000  -0.016   0.000  -0.016   0.000
        0.066   0.000  -0.084  -0.000  -0.013  -0.000  -0.013  -0.000  -0.013

  chi0(G,G') at the    7 th omega   0.0000  35.0027 [eV]
       1       2       3       4       5       6       7       8       9
    1  -0.290  -0.160   0.109   0.003  -0.086   0.003  -0.086   0.003  -0.086
        0.000  -0.160  -0.109   0.003   0.086   0.003   0.086   0.003   0.086

    2  -0.160  -4.239  -0.000  -0.021   0.000  -0.021   0.000  -0.021   0.000
        0.160   0.000  -0.249  -0.000  -0.040  -0.000  -0.040  -0.000  -0.040

  chi0(G,G') at the    8 th omega   0.0000  21.1544 [eV]
       1       2       3       4       5       6       7       8       9
    1  -0.727  -0.348   0.262  -0.010  -0.205  -0.010  -0.205  -0.010  -0.205
        0.000  -0.348  -0.262  -0.010   0.205  -0.010   0.205  -0.010   0.205

    2  -0.348  -7.223  -0.000  -0.010   0.000  -0.010   0.000  -0.010   0.000
        0.348   0.000  -0.635  -0.000  -0.074  -0.000  -0.074  -0.000  -0.074

  chi0(G,G') at the    9 th omega   0.0000  12.5762 [eV]
       1       2       3       4       5       6       7       8       9
    1  -1.713  -0.676   0.586  -0.075  -0.449  -0.075  -0.449  -0.075  -0.449
        0.000  -0.676  -0.586  -0.075   0.449  -0.075   0.449  -0.075   0.449

    2  -0.676 -10.677  -0.000  -0.002   0.000  -0.002   0.000  -0.002   0.000
        0.676   0.000  -1.363  -0.000  -0.069  -0.000  -0.069  -0.000  -0.069

  chi0(G,G') at the   10 th omega   0.0000   7.0746 [eV]
       1       2       3       4       5       6       7       8       9
    1  -3.654  -1.134   1.158  -0.272  -0.875  -0.272  -0.875  -0.272  -0.875
        0.000  -1.134  -1.158  -0.272   0.875  -0.272   0.875  -0.272   0.875

    2  -1.134 -14.068  -0.000  -0.062  -0.000  -0.062   0.000  -0.062   0.000
        1.134   0.000  -2.378  -0.000  -0.005  -0.000  -0.005  -0.000  -0.005

  chi0(G,G') at the   11 th omega   0.0000   3.5376 [eV]
       1       2       3       4       5       6       7       8       9
    1  -6.364  -1.536   1.861  -0.618  -1.411  -0.618  -1.411  -0.618  -1.411
        0.000  -1.536  -1.861  -0.618   1.411  -0.618   1.411  -0.618   1.411

    2  -1.536 -16.738  -0.000  -0.198   0.000  -0.198   0.000  -0.198   0.000
        1.536   0.000  -3.348  -0.000   0.049  -0.000   0.049  -0.000   0.049

  chi0(G,G') at the   12 th omega   0.0000   1.3702 [eV]
       1       2       3       4       5       6       7       8       9
    1  -8.332  -1.678   2.304  -0.885  -1.799  -0.885  -1.799  -0.885  -1.799
        0.000  -1.678  -2.304  -0.885   1.799  -0.885   1.799  -0.885   1.799

    2  -1.678 -18.154  -0.000  -0.298  -0.000  -0.298   0.000  -0.298   0.000
        1.678   0.000  -3.892  -0.000   0.032  -0.000   0.032  -0.000   0.032

  chi0(G,G') at the   13 th omega   0.0000   0.2532 [eV]
       1       2       3       4       5       6       7       8       9
    1  -8.854  -1.688   2.407  -0.952  -1.911  -0.952  -1.911  -0.952  -1.911
        0.000  -1.688  -2.407  -0.952   1.911  -0.952   1.911  -0.952   1.911

    2  -1.688 -18.491  -0.000  -0.322  -0.000  -0.322   0.000  -0.322   0.000
        1.688   0.000  -4.020  -0.000   0.013  -0.000   0.013  -0.000   0.013

  Average fulfillment of the sum rule on Im[epsilon] for q-point    3 :     95.48  [%]


--------------------------------------------------------------------------------
  q-point number  4        q = ( 0.375000, 0.000000, 0.000000) [r.l.u.]
--------------------------------------------------------------------------------
  chi0(G,G') at the    1 th omega   0.0000   0.0000 [eV]
       1       2       3       4       5       6       7       8       9
    1 -12.331  -1.964   2.772  -1.580  -2.348  -1.580  -2.348  -1.580  -2.348
        0.000  -1.964  -2.772  -1.580   2.348  -1.580   2.348  -1.580   2.348

    2  -1.964 -17.916   0.000  -0.010   0.000  -0.010   0.000  -0.010  -0.000
        1.964   0.000  -3.763  -0.000   0.124   0.000   0.124  -0.000   0.124

  chi0(G,G') at the    2 th omega   0.00002924.2333 [eV]
       1       2       3       4       5       6       7       8       9
    1  -0.000  -0.000   0.000  -0.000  -0.000  -0.000  -0.000  -0.000  -0.000
        0.000  -0.000  -0.000  -0.000   0.000  -0.000   0.000  -0.000   0.000

    2  -0.000  -0.001  -0.000  -0.000  -0.000  -0.000  -0.000  -0.000  -0.000
        0.000   0.000  -0.000  -0.000  -0.000   0.000  -0.000   0.000  -0.000

  chi0(G,G') at the    3 th omega   0.0000 540.3857 [eV]
       1       2       3       4       5       6       7       8       9
    1  -0.003  -0.002   0.001  -0.000  -0.001  -0.000  -0.001  -0.000  -0.001
        0.000  -0.002  -0.001  -0.000   0.001  -0.000   0.001  -0.000   0.001

    2  -0.002  -0.041  -0.000  -0.000  -0.000  -0.000  -0.000  -0.000  -0.000
        0.002   0.000  -0.001  -0.000  -0.000  -0.000  -0.000   0.000  -0.000

  chi0(G,G') at the    4 th omega   0.0000 209.3093 [eV]
       1       2       3       4       5       6       7       8       9
    1  -0.020  -0.010   0.005  -0.000  -0.005  -0.000  -0.005  -0.000  -0.005
        0.000  -0.010  -0.005  -0.000   0.005  -0.000   0.005  -0.000   0.005

    2  -0.010  -0.262  -0.000  -0.001  -0.000  -0.001  -0.000  -0.001  -0.000
        0.010   0.000  -0.006  -0.000  -0.000  -0.000  -0.000   0.000  -0.000

  chi0(G,G') at the    5 th omega   0.0000 104.6644 [eV]
       1       2       3       4       5       6       7       8       9
    1  -0.079  -0.038   0.018  -0.002  -0.020  -0.002  -0.020  -0.002  -0.020
        0.000  -0.038  -0.018  -0.002   0.020  -0.002   0.020  -0.002   0.020

    2  -0.038  -0.934  -0.000  -0.003  -0.000  -0.003  -0.000  -0.003  -0.000
        0.038   0.000  -0.023  -0.000  -0.003  -0.000  -0.003   0.000  -0.003

  chi0(G,G') at the    6 th omega   0.0000  58.8776 [eV]
       1       2       3       4       5       6       7       8       9
    1  -0.240  -0.106   0.052  -0.008  -0.060  -0.008  -0.060  -0.008  -0.060
        0.000  -0.106  -0.052  -0.008   0.060  -0.008   0.060  -0.008   0.060

    2  -0.106  -2.346  -0.000  -0.005  -0.000  -0.005  -0.000  -0.005  -0.000
        0.106   0.000  -0.077  -0.000  -0.014  -0.000  -0.014   0.000  -0.014

  chi0(G,G') at the    7 th omega   0.0000  35.0027 [eV]
       1       2       3       4       5       6       7       8       9
    1  -0.635  -0.250   0.137  -0.028  -0.153  -0.028  -0.153  -0.028  -0.153
        0.000  -0.250  -0.137  -0.028   0.153  -0.028   0.153  -0.028   0.153

    2  -0.250  -4.594   0.000   0.000  -0.000   0.000  -0.000   0.000  -0.000
        0.250   0.000  -0.224  -0.000  -0.039  -0.000  -0.039  -0.000  -0.039

  chi0(G,G') at the    8 th omega   0.0000  21.1544 [eV]
       1       2       3       4       5       6       7       8       9
    1  -1.533  -0.521   0.334  -0.097  -0.355  -0.097  -0.355  -0.097  -0.355
        0.000  -0.521  -0.334  -0.097   0.355  -0.097   0.355  -0.097   0.355

    2  -0.521  -7.499   0.000   0.016  -0.000   0.016  -0.000   0.016  -0.000
        0.521   0.000  -0.573  -0.000  -0.063  -0.000  -0.063  -0.000  -0.063

  chi0(G,G') at the    9 th omega   0.0000  12.5762 [eV]
       1       2       3       4       5       6       7       8       9
    1  -3.368  -0.955   0.747  -0.290  -0.734  -0.290  -0.734  -0.290  -0.734
        0.000  -0.955  -0.747  -0.290   0.734  -0.290   0.734  -0.290   0.734

    2  -0.955 -10.716   0.000   0.029  -0.000   0.029  -0.000   0.029  -0.000
        0.955   0.000  -1.249  -0.000  -0.046  -0.000  -0.046  -0.000  -0.046

  chi0(G,G') at the   10 th omega   0.0000   7.0746 [eV]
       1       2       3       4       5       6       7       8       9
    1  -6.408  -1.480   1.443  -0.692  -1.297  -0.692  -1.297  -0.692  -1.297
        0.000  -1.480  -1.443  -0.692   1.297  -0.692   1.297  -0.692   1.297

    2  -1.480 -13.804   0.000   0.012   0.000   0.012  -0.000   0.012  -0.000
        1.480   0.000  -2.213  -0.000   0.028  -0.000   0.028  -0.000   0.028

  chi0(G,G') at the   11 th omega   0.0000   3.5376 [eV]
       1       2       3       4       5       6       7       8       9
    1  -9.788  -1.859   2.216  -1.201  -1.874  -1.201  -1.874  -1.201  -1.874
        0.000  -1.859  -2.216  -1.201   1.874  -1.201   1.874  -1.201   1.874

    2  -1.859 -16.239   0.000  -0.017   0.000  -0.017  -0.000  -0.017  -0.000
        1.859   0.000  -3.126  -0.000   0.102  -0.000   0.102  -0.000   0.102

  chi0(G,G') at the   12 th omega   0.0000   1.3702 [eV]
       1       2       3       4       5       6       7       8       9
    1 -11.814  -1.963   2.663  -1.509  -2.239  -1.509  -2.239  -1.509  -2.239
        0.000  -1.963  -2.663  -1.509   2.239  -1.509   2.239  -1.509   2.239

    2  -1.963 -17.571   0.000  -0.016   0.000  -0.016  -0.000  -0.016   0.000
        1.963   0.000  -3.635  -0.000   0.125   0.000   0.125  -0.000   0.125

  chi0(G,G') at the   13 th omega   0.0000   0.2532 [eV]
       1       2       3       4       5       6       7       8       9
    1 -12.311  -1.964   2.768  -1.578  -2.344  -1.578  -2.344  -1.578  -2.344
        0.000  -1.964  -2.768  -1.578   2.344  -1.578   2.344  -1.578   2.344

    2  -1.964 -17.903   0.000  -0.010   0.000  -0.010   0.000  -0.010   0.000
        1.964   0.000  -3.758  -0.000   0.124   0.000   0.124  -0.000   0.124

  Average fulfillment of the sum rule on Im[epsilon] for q-point    4 :     95.56  [%]


--------------------------------------------------------------------------------
  q-point number  5        q = ( 0.500000, 0.000000, 0.000000) [r.l.u.]
--------------------------------------------------------------------------------
  chi0(G,G') at the    1 th omega   0.0000   0.0000 [eV]
       1       2       3       4       5       6       7       8       9
    1 -14.555  -2.272   2.876  -1.977  -2.540  -1.977  -2.540  -1.977  -2.540
        0.000  -2.272  -2.876  -1.977   2.540  -1.977   2.540  -1.977   2.540

    2  -2.272 -16.925  -0.000   0.309   0.000   0.309   0.000   0.309   0.000
        2.272   0.000  -3.560  -0.000   0.223  -0.000   0.223  -0.000   0.223

  chi0(G,G') at the    2 th omega   0.00002924.2333 [eV]
       1       2       3       4       5       6       7       8       9
    1  -0.000  -0.000   0.000  -0.000  -0.000  -0.000  -0.000  -0.000  -0.000
        0.000  -0.000  -0.000  -0.000   0.000  -0.000   0.000  -0.000   0.000

    2  -0.000  -0.002   0.000  -0.000   0.000  -0.000   0.000  -0.000   0.000
        0.000   0.000  -0.000   0.000  -0.000   0.000  -0.000   0.000  -0.000

  chi0(G,G') at the    3 th omega   0.0000 540.3857 [eV]
       1       2       3       4       5       6       7       8       9
    1  -0.005  -0.002   0.001  -0.000  -0.001  -0.000  -0.001  -0.000  -0.001
        0.000  -0.002  -0.001  -0.000   0.001  -0.000   0.001  -0.000   0.001

    2  -0.002  -0.049   0.000  -0.000   0.000  -0.000   0.000  -0.000   0.000
        0.002   0.000  -0.001   0.000  -0.000   0.000  -0.000   0.000  -0.000

  chi0(G,G') at the    4 th omega   0.0000 209.3093 [eV]
       1       2       3       4       5       6       7       8       9
    1  -0.036  -0.015   0.005  -0.002  -0.008  -0.002  -0.008  -0.002  -0.008
        0.000  -0.015  -0.005  -0.002   0.008  -0.002   0.008  -0.002   0.008

    2  -0.015  -0.309   0.000   0.000   0.000   0.000   0.000   0.000   0.000
        0.015   0.000  -0.005   0.000  -0.000   0.000  -0.000   0.000  -0.000

  chi0(G,G') at the    5 th omega   0.0000 104.6644 [eV]
       1       2       3       4       5       6       7       8       9
    1  -0.139  -0.054   0.019  -0.008  -0.032  -0.008  -0.032  -0.008  -0.032
        0.000  -0.054  -0.019  -0.008   0.032  -0.008   0.032  -0.008   0.032

    2  -0.054  -1.075   0.000   0.002   0.000   0.002   0.000   0.002   0.000
        0.054   0.000  -0.020   0.000  -0.003   0.000  -0.003   0.000  -0.003

  chi0(G,G') at the    6 th omega   0.0000  58.8776 [eV]
       1       2       3       4       5       6       7       8       9
    1  -0.419  -0.149   0.056  -0.025  -0.093  -0.025  -0.093  -0.025  -0.093
        0.000  -0.149  -0.056  -0.025   0.093  -0.025   0.093  -0.025   0.093

    2  -0.149  -2.596   0.000   0.007   0.000   0.007   0.000   0.007   0.000
        0.149   0.000  -0.066   0.000  -0.014   0.000  -0.014   0.000  -0.014

  chi0(G,G') at the    7 th omega   0.0000  35.0027 [eV]
       1       2       3       4       5       6       7       8       9
    1  -1.084  -0.341   0.147  -0.078  -0.232  -0.078  -0.232  -0.078  -0.232
        0.000  -0.341  -0.147  -0.078   0.232  -0.078   0.232  -0.078   0.232

    2  -0.341  -4.859   0.000   0.021   0.000   0.021   0.000   0.021   0.000
        0.341   0.000  -0.191  -0.000  -0.037   0.000  -0.037   0.000  -0.037

  chi0(G,G') at the    8 th omega   0.0000  21.1544 [eV]
       1       2       3       4       5       6       7       8       9
    1  -2.500  -0.680   0.358  -0.221  -0.515  -0.221  -0.515  -0.221  -0.515
        0.000  -0.680  -0.358  -0.221   0.515  -0.221   0.515  -0.221   0.515

    2  -0.680  -7.612   0.000   0.043   0.000   0.043   0.000   0.043   0.000
        0.680   0.000  -0.488  -0.000  -0.056  -0.000  -0.056   0.000  -0.056

  chi0(G,G') at the    9 th omega   0.0000  12.5762 [eV]
       1       2       3       4       5       6       7       8       9
    1  -5.091  -1.179   0.802  -0.545  -0.990  -0.545  -0.990  -0.545  -0.990
        0.000  -1.179  -0.802  -0.545   0.990  -0.545   0.990  -0.545   0.990

    2  -1.179 -10.536   0.000   0.076   0.000   0.076   0.000   0.076   0.000
        1.179   0.000  -1.086  -0.000  -0.038  -0.000  -0.038   0.000  -0.038

  chi0(G,G') at the   10 th omega   0.0000   7.0746 [eV]
       1       2       3       4       5       6       7       8       9
    1  -8.761  -1.734   1.533  -1.078  -1.599  -1.078  -1.599  -1.078  -1.599
        0.000  -1.734  -1.533  -1.078   1.599  -1.078   1.599  -1.078   1.599

    2  -1.734 -13.282   0.000   0.122   0.000   0.122   0.000   0.122   0.000
        1.734   0.000  -1.992  -0.000   0.030  -0.000   0.030   0.000   0.030

  chi0(G,G') at the   11 th omega   0.0000   3.5376 [eV]
       1       2       3       4       5       6       7       8       9
    1 -12.235  -2.121   2.317  -1.625  -2.136  -1.625  -2.136  -1.625  -2.136
        0.000  -2.121  -2.317  -1.625   2.136  -1.625   2.136  -1.625   2.136

    2  -2.121 -15.434  -0.000   0.198   0.000   0.198   0.000   0.198   0.000
        2.121   0.000  -2.895  -0.000   0.122  -0.000   0.122   0.000   0.122

  chi0(G,G') at the   12 th omega   0.0000   1.3702 [eV]
       1       2       3       4       5       6       7       8       9
    1 -14.102  -2.254   2.764  -1.914  -2.447  -1.914  -2.447  -1.914  -2.447
        0.000  -2.254  -2.764  -1.914   2.447  -1.914   2.447  -1.914   2.447

    2  -2.254 -16.615  -0.000   0.279   0.000   0.279   0.000   0.279   0.000
        2.254   0.000  -3.419  -0.000   0.196  -0.000   0.196   0.000   0.196

  chi0(G,G') at the   13 th omega   0.0000   0.2532 [eV]
       1       2       3       4       5       6       7       8       9
    1 -14.539  -2.272   2.872  -1.975  -2.536  -1.975  -2.536  -1.975  -2.536
        0.000  -2.272  -2.872  -1.975   2.536  -1.975   2.536  -1.975   2.536

    2  -2.272 -16.913  -0.000   0.307   0.000   0.307   0.000   0.307   0.000
        2.272   0.000  -3.554  -0.000   0.221  -0.000   0.221  -0.000   0.221

  Average fulfillment of the sum rule on Im[epsilon] for q-point    5 :     95.59  [%]


--------------------------------------------------------------------------------
  q-point number  6        q = ( 0.125000, 0.125000, 0.000000) [r.l.u.]
--------------------------------------------------------------------------------
  chi0(G,G') at the    1 th omega   0.0000   0.0000 [eV]
       1       2       3       4       5       6       7       8       9
    1  -4.746  -1.400   0.341   0.341  -1.400   0.341  -1.400  -1.400   0.341
        0.000  -1.400  -0.341   0.341   1.400   0.341   1.400  -1.400  -0.341

    2  -1.400 -19.128  -0.000  -0.242  -0.000  -0.242   0.000  -0.544   0.000
        1.400   0.000  -4.005  -0.000   0.071   0.000   0.071   0.000  -0.287

  chi0(G,G') at the    2 th omega   0.00002924.2333 [eV]
       1       2       3       4       5       6       7       8       9
    1  -0.000  -0.000   0.000   0.000  -0.000   0.000  -0.000  -0.000   0.000
        0.000  -0.000  -0.000   0.000   0.000   0.000   0.000  -0.000  -0.000

    2  -0.000  -0.001  -0.000  -0.000   0.000  -0.000   0.000  -0.000   0.000
        0.000   0.000  -0.000  -0.000  -0.000   0.000  -0.000   0.000  -0.000

  chi0(G,G') at the    3 th omega   0.0000 540.3857 [eV]
       1       2       3       4       5       6       7       8       9
    1  -0.000  -0.000   0.000   0.000  -0.000   0.000  -0.000  -0.000   0.000
        0.000  -0.000  -0.000   0.000   0.000   0.000   0.000  -0.000  -0.000

    2  -0.000  -0.026  -0.000  -0.000   0.000  -0.000   0.000  -0.000   0.000
        0.000   0.000  -0.001  -0.000  -0.000   0.000  -0.000   0.000  -0.000

  chi0(G,G') at the    4 th omega   0.0000 209.3093 [eV]
       1       2       3       4       5       6       7       8       9
    1  -0.003  -0.002   0.001   0.001  -0.002   0.001  -0.002  -0.002   0.001
        0.000  -0.002  -0.001   0.001   0.002   0.001   0.002  -0.002  -0.001

    2  -0.002  -0.167  -0.000  -0.003   0.000  -0.003   0.000  -0.002   0.000
        0.002   0.000  -0.006  -0.000  -0.000   0.000  -0.000   0.000  -0.000

  chi0(G,G') at the    5 th omega   0.0000 104.6644 [eV]
       1       2       3       4       5       6       7       8       9
    1  -0.012  -0.008   0.005   0.005  -0.008   0.005  -0.008  -0.008   0.005
        0.000  -0.008  -0.005   0.005   0.008   0.005   0.008  -0.008  -0.005

    2  -0.008  -0.623  -0.000  -0.013   0.000  -0.013   0.000  -0.009   0.000
        0.008   0.000  -0.026  -0.000  -0.002   0.000  -0.002   0.000  -0.002

  chi0(G,G') at the    6 th omega   0.0000  58.8776 [eV]
       1       2       3       4       5       6       7       8       9
    1  -0.036  -0.023   0.013   0.013  -0.023   0.013  -0.023  -0.023   0.013
        0.000  -0.023  -0.013   0.013   0.023   0.013   0.023  -0.023  -0.013

    2  -0.023  -1.691  -0.000  -0.032   0.000  -0.032   0.000  -0.020   0.000
        0.023   0.000  -0.089  -0.000  -0.011   0.000  -0.011   0.000  -0.010

  chi0(G,G') at the    7 th omega   0.0000  35.0027 [eV]
       1       2       3       4       5       6       7       8       9
    1  -0.098  -0.058   0.033   0.033  -0.058   0.033  -0.058  -0.058   0.033
        0.000  -0.058  -0.033   0.033   0.058   0.033   0.058  -0.058  -0.033

    2  -0.058  -3.667  -0.000  -0.054   0.000  -0.054   0.000  -0.026   0.000
        0.058   0.000  -0.262  -0.000  -0.039   0.000  -0.039   0.000  -0.037

  chi0(G,G') at the    8 th omega   0.0000  21.1544 [eV]
       1       2       3       4       5       6       7       8       9
    1  -0.251  -0.136   0.073   0.073  -0.136   0.073  -0.136  -0.136   0.073
        0.000  -0.136  -0.073   0.073   0.136   0.073   0.136  -0.136  -0.073

    2  -0.136  -6.627  -0.000  -0.052   0.000  -0.052   0.000  -0.014   0.000
        0.136   0.000  -0.664  -0.000  -0.083   0.000  -0.083   0.000  -0.091

  chi0(G,G') at the    9 th omega   0.0000  12.5762 [eV]
       1       2       3       4       5       6       7       8       9
    1  -0.621  -0.293   0.142   0.142  -0.293   0.142  -0.293  -0.293   0.142
        0.000  -0.293  -0.142   0.142   0.293   0.142   0.293  -0.293  -0.142

    2  -0.293 -10.281  -0.000  -0.024   0.000  -0.024   0.000  -0.004   0.000
        0.293   0.000  -1.394  -0.000  -0.102   0.000  -0.102   0.000  -0.146

  chi0(G,G') at the   10 th omega   0.0000   7.0746 [eV]
       1       2       3       4       5       6       7       8       9
    1  -1.461  -0.579   0.236   0.236  -0.579   0.236  -0.579  -0.579   0.236
        0.000  -0.579  -0.236   0.236   0.579   0.236   0.579  -0.579  -0.236

    2  -0.579 -14.021  -0.000  -0.027   0.000  -0.027   0.000  -0.079   0.000
        0.579   0.000  -2.376  -0.000  -0.059   0.000  -0.059   0.000  -0.174

  chi0(G,G') at the   11 th omega   0.0000   3.5376 [eV]
       1       2       3       4       5       6       7       8       9
    1  -2.957  -0.988   0.314   0.314  -0.988   0.314  -0.988  -0.988   0.314
        0.000  -0.988  -0.314   0.314   0.988   0.314   0.988  -0.988  -0.314

    2  -0.988 -17.068  -0.000  -0.112   0.000  -0.112   0.000  -0.291   0.000
        0.988   0.000  -3.313  -0.000   0.021   0.000   0.021   0.000  -0.210

  chi0(G,G') at the   12 th omega   0.0000   1.3702 [eV]
       1       2       3       4       5       6       7       8       9
    1  -4.333  -1.310   0.339   0.339  -1.310   0.339  -1.310  -1.310   0.339
        0.000  -1.310  -0.339   0.339   1.310   0.339   1.310  -1.310  -0.339

    2  -1.310 -18.720  -0.000  -0.209   0.000  -0.209   0.000  -0.487   0.000
        1.310   0.000  -3.864  -0.000   0.065   0.000   0.065   0.000  -0.266

  chi0(G,G') at the   13 th omega   0.0000   0.2532 [eV]
       1       2       3       4       5       6       7       8       9
    1  -4.731  -1.397   0.341   0.341  -1.397   0.341  -1.397  -1.397   0.341
        0.000  -1.397  -0.341   0.341   1.397   0.341   1.397  -1.397  -0.341

    2  -1.397 -19.113  -0.000  -0.240   0.000  -0.240   0.000  -0.542   0.000
        1.397   0.000  -4.000  -0.000   0.071   0.000   0.071   0.000  -0.286

  Average fulfillment of the sum rule on Im[epsilon] for q-point    6 :     95.39  [%]


--------------------------------------------------------------------------------
  q-point number  7        q = ( 0.250000, 0.125000, 0.000000) [r.l.u.]
--------------------------------------------------------------------------------
  chi0(G,G') at the    1 th omega   0.0000   0.0000 [eV]
       1       2       3       4       5       6       7       8       9
    1  -9.249  -1.970   1.316  -0.308  -2.115  -0.308  -2.115  -1.793  -0.990
        0.000  -1.970  -1.316  -0.308   2.115  -0.308   2.115  -1.793   0.990

    2  -1.970 -18.758  -0.000  -0.374  -0.000  -0.374  -0.000  -0.439   0.000
        1.970   0.000  -3.725   0.000   0.165   0.000   0.165  -0.000  -0.249

  chi0(G,G') at the    2 th omega   0.00002924.2333 [eV]
       1       2       3       4       5       6       7       8       9
    1  -0.000  -0.000   0.000   0.000  -0.000   0.000  -0.000  -0.000  -0.000
        0.000  -0.000  -0.000   0.000   0.000   0.000   0.000  -0.000   0.000

    2  -0.000  -0.001   0.000  -0.000   0.000  -0.000   0.000  -0.000   0.000
        0.000   0.000  -0.000  -0.000  -0.000  -0.000  -0.000   0.000  -0.000

  chi0(G,G') at the    3 th omega   0.0000 540.3857 [eV]
       1       2       3       4       5       6       7       8       9
    1  -0.001  -0.001   0.000   0.000  -0.001   0.000  -0.001  -0.000  -0.000
        0.000  -0.001  -0.000   0.000   0.001   0.000   0.001  -0.000   0.000

    2  -0.001  -0.032   0.000  -0.000   0.000  -0.000   0.000  -0.000   0.000
        0.001   0.000  -0.001  -0.000  -0.000  -0.000  -0.000   0.000  -0.000

  chi0(G,G') at the    4 th omega   0.0000 209.3093 [eV]
       1       2       3       4       5       6       7       8       9
    1  -0.008  -0.005   0.003   0.001  -0.004   0.001  -0.004  -0.002  -0.000
        0.000  -0.005  -0.003   0.001   0.004   0.001   0.004  -0.002   0.000

    2  -0.005  -0.207   0.000  -0.003   0.000  -0.003   0.000  -0.002   0.000
        0.005   0.000  -0.006  -0.000  -0.000  -0.000  -0.000   0.000  -0.000

  chi0(G,G') at the    5 th omega   0.0000 104.6644 [eV]
       1       2       3       4       5       6       7       8       9
    1  -0.032  -0.020   0.011   0.005  -0.014   0.005  -0.014  -0.008  -0.001
        0.000  -0.020  -0.011   0.005   0.014   0.005   0.014  -0.008   0.001

    2  -0.020  -0.755   0.000  -0.009   0.000  -0.009  -0.000  -0.006   0.000
        0.020   0.000  -0.025  -0.000  -0.002  -0.000  -0.002   0.000  -0.002

  chi0(G,G') at the    6 th omega   0.0000  58.8776 [eV]
       1       2       3       4       5       6       7       8       9
    1  -0.099  -0.057   0.033   0.013  -0.040   0.013  -0.040  -0.023  -0.005
        0.000  -0.057  -0.033   0.013   0.040   0.013   0.040  -0.023   0.005

    2  -0.057  -1.987   0.000  -0.023   0.000  -0.023   0.000  -0.011   0.000
        0.057   0.000  -0.085  -0.000  -0.013  -0.000  -0.013   0.000  -0.011

  chi0(G,G') at the    7 th omega   0.0000  35.0027 [eV]
       1       2       3       4       5       6       7       8       9
    1  -0.267  -0.139   0.084   0.031  -0.102   0.031  -0.102  -0.062  -0.017
        0.000  -0.139  -0.084   0.031   0.102   0.031   0.102  -0.062   0.017

    2  -0.139  -4.122   0.000  -0.034  -0.000  -0.034  -0.000  -0.010   0.000
        0.139   0.000  -0.250  -0.000  -0.040   0.000  -0.040   0.000  -0.038

  chi0(G,G') at the    8 th omega   0.0000  21.1544 [eV]
       1       2       3       4       5       6       7       8       9
    1  -0.670  -0.308   0.196   0.060  -0.236   0.060  -0.236  -0.153  -0.055
        0.000  -0.308  -0.196   0.060   0.236   0.060   0.236  -0.153   0.055

    2  -0.308  -7.113   0.000  -0.029  -0.000  -0.029  -0.000   0.006   0.000
        0.308   0.000  -0.635  -0.000  -0.073   0.000  -0.073  -0.000  -0.080

  chi0(G,G') at the    9 th omega   0.0000  12.5762 [eV]
       1       2       3       4       5       6       7       8       9
    1  -1.593  -0.616   0.414   0.083  -0.502   0.083  -0.502  -0.355  -0.162
        0.000  -0.616  -0.414   0.083   0.502   0.083   0.502  -0.355   0.162

    2  -0.616 -10.624   0.000  -0.022  -0.000  -0.022  -0.000   0.016   0.000
        0.616   0.000  -1.343  -0.000  -0.068  -0.000  -0.068  -0.000  -0.096

  chi0(G,G') at the   10 th omega   0.0000   7.0746 [eV]
       1       2       3       4       5       6       7       8       9
    1  -3.482  -1.081   0.756   0.046  -0.955   0.046  -0.955  -0.748  -0.397
        0.000  -1.081  -0.756   0.046   0.955   0.046   0.955  -0.748   0.397

    2  -1.081 -14.104   0.000  -0.080  -0.000  -0.080  -0.000  -0.048   0.000
        1.081   0.000  -2.291  -0.000   0.008   0.000   0.008  -0.000  -0.070

  chi0(G,G') at the   11 th omega   0.0000   3.5376 [eV]
       1       2       3       4       5       6       7       8       9
    1  -6.337  -1.590   1.111  -0.103  -1.545  -0.103  -1.545  -1.302  -0.719
        0.000  -1.590  -1.111  -0.103   1.545  -0.103   1.545  -1.302   0.719

    2  -1.590 -16.882   0.000  -0.226  -0.000  -0.226  -0.000  -0.216   0.000
        1.590   0.000  -3.156  -0.000   0.110   0.000   0.110  -0.000  -0.091

  chi0(G,G') at the   12 th omega   0.0000   1.3702 [eV]
       1       2       3       4       5       6       7       8       9
    1  -8.603  -1.897   1.283  -0.259  -1.986  -0.259  -1.986  -1.696  -0.931
        0.000  -1.897  -1.283  -0.259   1.986  -0.259   1.986  -1.696   0.931

    2  -1.897 -18.382   0.000  -0.343  -0.000  -0.343  -0.000  -0.381   0.000
        1.897   0.000  -3.616   0.000   0.161   0.000   0.161  -0.000  -0.195

  chi0(G,G') at the   13 th omega   0.0000   0.2532 [eV]
       1       2       3       4       5       6       7       8       9
    1  -9.224  -1.967   1.315  -0.306  -2.110  -0.306  -2.110  -1.789  -0.987
        0.000  -1.967  -1.315  -0.306   2.110  -0.306   2.110  -1.789   0.987

    2  -1.967 -18.744  -0.000  -0.373  -0.000  -0.373  -0.000  -0.437   0.000
        1.967   0.000  -3.721   0.000   0.165   0.000   0.165  -0.000  -0.247

  Average fulfillment of the sum rule on Im[epsilon] for q-point    7 :     95.47  [%]


--------------------------------------------------------------------------------
  q-point number  8        q = ( 0.375000, 0.125000, 0.000000) [r.l.u.]
--------------------------------------------------------------------------------
  chi0(G,G') at the    1 th omega   0.0000   0.0000 [eV]
       1       2       3       4       5       6       7       8       9
    1 -12.992  -2.177   1.738  -1.166  -2.603  -1.166  -2.603  -2.135  -1.644
        0.000  -2.177  -1.738  -1.166   2.603  -1.166   2.603  -2.135   1.644

    2  -2.177 -18.199  -0.000  -0.146  -0.000  -0.146  -0.000  -0.155  -0.000
        2.177   0.000  -3.483   0.000   0.234   0.000   0.234  -0.000  -0.142

  chi0(G,G') at the    2 th omega   0.00002924.2333 [eV]
       1       2       3       4       5       6       7       8       9
    1  -0.000  -0.000   0.000   0.000  -0.000   0.000  -0.000  -0.000  -0.000
        0.000  -0.000  -0.000   0.000   0.000   0.000   0.000  -0.000   0.000

    2  -0.000  -0.001   0.000  -0.000   0.000  -0.000   0.000  -0.000   0.000
        0.000   0.000  -0.000   0.000  -0.000   0.000  -0.000  -0.000  -0.000

  chi0(G,G') at the    3 th omega   0.0000 540.3857 [eV]
       1       2       3       4       5       6       7       8       9
    1  -0.003  -0.001   0.001   0.000  -0.001   0.000  -0.001  -0.000  -0.000
        0.000  -0.001  -0.001   0.000   0.001   0.000   0.001  -0.000   0.000

    2  -0.001  -0.039   0.000  -0.000   0.000  -0.000   0.000  -0.000   0.000
        0.001   0.000  -0.001   0.000  -0.000   0.000  -0.000  -0.000  -0.000

  chi0(G,G') at the    4 th omega   0.0000 209.3093 [eV]
       1       2       3       4       5       6       7       8       9
    1  -0.018  -0.009   0.004   0.001  -0.006   0.001  -0.006  -0.003  -0.003
        0.000  -0.009  -0.004   0.001   0.006   0.001   0.006  -0.003   0.003

    2  -0.009  -0.249   0.000  -0.002   0.000  -0.002   0.000  -0.001   0.000
        0.009   0.000  -0.006   0.000  -0.000   0.000  -0.000  -0.000  -0.000

  chi0(G,G') at the    5 th omega   0.0000 104.6644 [eV]
       1       2       3       4       5       6       7       8       9
    1  -0.070  -0.034   0.016   0.003  -0.022   0.003  -0.022  -0.010  -0.010
        0.000  -0.034  -0.016   0.003   0.022   0.003   0.022  -0.010   0.010

    2  -0.034  -0.893   0.000  -0.005   0.000  -0.005   0.000  -0.002   0.000
        0.034   0.000  -0.023   0.000  -0.003   0.000  -0.003  -0.000  -0.002

  chi0(G,G') at the    6 th omega   0.0000  58.8776 [eV]
       1       2       3       4       5       6       7       8       9
[...]
                      -1  0  0  -1  0  1  -1  1  0       1  0  0   1  0 -1   1 -1  0
                       0  1 -1   1  0 -1   0  0 -1       0 -1  1  -1  0  1   0  0  1
                      -1  0  0  -1  1  0  -1  0  1       1  0  0   1 -1  0   1  0 -1
                       0 -1  1   1 -1  0   0 -1  0       0  1 -1  -1  1  0   0  1  0
                       1  0  0   0  0  1   0  1  0      -1  0  0   0  0 -1   0 -1  0
                       0  1 -1   0  0 -1   1  0 -1       0 -1  1   0  0  1  -1  0  1
                      -1  0  1  -1  1  0  -1  0  0       1  0 -1   1 -1  0   1  0  0
                       0 -1  0   1 -1  0   0 -1  1       0  1  0  -1  1  0   0  1 -1
                       1  0 -1   0  0 -1   0  1 -1      -1  0  1   0  0  1   0 -1  1
                       0  1  0   0  0  1   1  0  0       0 -1  0   0  0 -1  -1  0  0
                       1  0 -1   0  1 -1   0  0 -1      -1  0  1   0 -1  1   0  0  1
                       0 -1  0   0 -1  1   1 -1  0       0  1  0   0  1 -1  -1  1  0
                      -1  0  1  -1  0  0  -1  1  0       1  0 -1   1  0  0   1 -1  0
                       0  1  0   1  0  0   0  0  1       0 -1  0  -1  0  0   0  0 -1
                       0  0 -1   0  1 -1   1  0 -1       0  0  1   0 -1  1  -1  0  1
                       1 -1  0   0 -1  1   0 -1  0      -1  1  0   0  1 -1   0  1  0
                       0  0  1   1  0  0   0  1  0       0  0 -1  -1  0  0   0 -1  0
                      -1  1  0  -1  0  0  -1  0  1       1 -1  0   1  0  0   1  0 -1
                       0  0  1   0  1  0   1  0  0       0  0 -1   0 -1  0  -1  0  0
                       1 -1  0   0 -1  0   0 -1  1      -1  1  0   0  1  0   0  1 -1
                       0  0 -1   1  0 -1   0  1 -1       0  0  1  -1  0  1   0 -1  1
                      -1  1  0  -1  0  1  -1  0  0       1 -1  0   1  0 -1   1  0  0
           timopt          -1
            tnons      0.0000000  0.0000000  0.0000000     0.2500000  0.2500000  0.2500000
                       0.0000000  0.0000000  0.0000000     0.2500000  0.2500000  0.2500000
                       0.0000000  0.0000000  0.0000000     0.2500000  0.2500000  0.2500000
                       0.0000000  0.0000000  0.0000000     0.2500000  0.2500000  0.2500000
                       0.0000000  0.0000000  0.0000000     0.2500000  0.2500000  0.2500000
                       0.0000000  0.0000000  0.0000000     0.2500000  0.2500000  0.2500000
                       0.0000000  0.0000000  0.0000000     0.2500000  0.2500000  0.2500000
                       0.0000000  0.0000000  0.0000000     0.2500000  0.2500000  0.2500000
                       0.0000000  0.0000000  0.0000000     0.2500000  0.2500000  0.2500000
                       0.0000000  0.0000000  0.0000000     0.2500000  0.2500000  0.2500000
                       0.0000000  0.0000000  0.0000000     0.2500000  0.2500000  0.2500000
                       0.0000000  0.0000000  0.0000000     0.2500000  0.2500000  0.2500000
                       0.0000000  0.0000000  0.0000000     0.2500000  0.2500000  0.2500000
                       0.0000000  0.0000000  0.0000000     0.2500000  0.2500000  0.2500000
                       0.0000000  0.0000000  0.0000000     0.2500000  0.2500000  0.2500000
                       0.0000000  0.0000000  0.0000000     0.2500000  0.2500000  0.2500000
                       0.0000000  0.0000000  0.0000000     0.2500000  0.2500000  0.2500000
                       0.0000000  0.0000000  0.0000000     0.2500000  0.2500000  0.2500000
                       0.0000000  0.0000000  0.0000000     0.2500000  0.2500000  0.2500000
                       0.0000000  0.0000000  0.0000000     0.2500000  0.2500000  0.2500000
                       0.0000000  0.0000000  0.0000000     0.2500000  0.2500000  0.2500000
                       0.0000000  0.0000000  0.0000000     0.2500000  0.2500000  0.2500000
                       0.0000000  0.0000000  0.0000000     0.2500000  0.2500000  0.2500000
                       0.0000000  0.0000000  0.0000000     0.2500000  0.2500000  0.2500000
            typat      1  1
              wtk        0.00195    0.01563    0.01563    0.01563    0.00781    0.01172
                         0.04688    0.04688    0.04688    0.04688    0.04688    0.02344
                         0.01172    0.04688    0.04688    0.04688    0.02344    0.01172
                         0.04688    0.02344    0.00586    0.04688    0.09375    0.04688
                         0.04688    0.09375    0.04688    0.02344    0.01172
           xangst      0.0000000000E+00  0.0000000000E+00  0.0000000000E+00
                       1.3573395400E+00  1.3573395400E+00  1.3573395400E+00
            xcart      0.0000000000E+00  0.0000000000E+00  0.0000000000E+00
                       2.5650000000E+00  2.5650000000E+00  2.5650000000E+00
             xred      0.0000000000E+00  0.0000000000E+00  0.0000000000E+00
                       2.5000000000E-01  2.5000000000E-01  2.5000000000E-01
            znucl       14.00000

================================================================================

 Test the timer : 
  a combined call timab(*,1,tsec) + timab(*,2,tsec) is 
- CPU time =    6.1543E-07 sec,    Wall time =    6.1568E-07 sec

- Total cpu        time (s,m,h):     216183.7     3603.06     60.051
- Total wall clock time (s,m,h):     216444.5     3607.41     60.123
-
- For major independent code sections, cpu and wall times (sec),
-  as well as % of the time and number of calls for node 0
-
-<BEGIN_TIMER mpi_nprocs = 256, omp_nthreads = 1, mpi_rank = 0>
- cpu_time =          843.0, wall_time =          845.5
-
- routine                            cpu     %          wall     %      number of calls Gflops    Speedup Efficacity
-                                                                        (-1=no count)
- sigma/=fourdp                    57.658   0.0        58.219   0.0              1      -1.00        0.99       0.99
- wfd_read_wfk                      1.472   0.0         1.487   0.0              2      -1.00        0.99       0.99
- pspini                            0.247   0.0         0.258   0.0              2      -1.00        0.96       0.96
- others (152)                      0.413   0.0         0.449   0.0             -1      -1.00        0.92       0.92
-<END_TIMER>
-
- subtotal                         59.789   0.0        60.413   0.0                                  0.99       0.99

- For major independent code sections, cpu and wall times (sec),
- as well as % of the total time and number of calls 

-<BEGIN_TIMER mpi_nprocs = 256, omp_nthreads = 1, mpi_rank = world>
- cpu_time =      216183.7, wall_time =      216444.5
-
- routine                            cpu     %          wall     %      number of calls Gflops    Speedup Efficacity
-                                                                        (-1=no count)
- sigma/=fourdp                 14644.303   6.8     14847.328   6.9            256      -1.00        0.99       0.99
- wfd_read_wfk                    380.473   0.2       380.683   0.2            512      -1.00        1.00       1.00
- pspini                           62.230   0.0        63.942   0.0            512      -1.00        0.97       0.97
- timing timab                     30.040   0.0        30.043   0.0           3584      -1.00        1.00       1.00
- abinit(2)                        16.607   0.0        16.983   0.0            256      -1.00        0.98       0.98
- invars2                          12.462   0.0        12.465   0.0            512      -1.00        1.00       1.00
- ewald                             5.058   0.0         5.061   0.0            512      -1.00        1.00       1.00
- fourdp                            4.546   0.0         7.868   0.0           8704      -1.00        0.58       0.58
- xc:pot/=fourdp                    4.528   0.0         4.555   0.0            768      -1.00        0.99       0.99
- mkffnl                            2.450   0.0         2.396   0.0           7424      -1.00        1.02       1.02
- mkcore                            1.033   0.0         1.034   0.0            512      -1.00        1.00       1.00
- kpgsph                            0.685   0.0         0.681   0.0          76858      -1.00        1.01       1.01
- symrhg(no FFT)                    0.330   0.0         0.331   0.0            512      -1.00        1.00       1.00
- others (142)                      0.000   0.0         0.000   0.0             -1      -1.00        0.00       0.00
-<END_TIMER>

- subtotal                      15164.747   7.0     15373.369   7.1                                  0.99       0.99

 Partitioning of abinit
- abinit                       216183.680 100.0    216444.491 100.0            256                   1.00       1.00
 
- abinit(1)                        56.931   0.0        62.169   0.0            256                   0.92       0.92
- abinit(4)                        64.627   0.0        68.963   0.0            256                   0.94       0.94
- driver                       216035.404  99.9    216287.488  99.9            256                   1.00       1.00

- subtotal                     216183.680 100.0    216444.491 100.0                                  1.00       1.00

 Partitioning of driver
- driver                       216035.404  99.9    216287.488  99.9            256                   1.00       1.00
 
- screening                    201314.461  93.1    201357.100  93.0            256                   1.00       1.00
- sigma                         14644.382   6.8     14847.406   6.9            256                   0.99       0.99
- (other)                          70.497   0.0        70.543   0.0             -1                   1.00       1.00

- subtotal                     216035.404  99.9    216287.488  99.9                                  1.00       1.00

 Partitioning of screening
- screening                    201314.461  93.1    201357.100  93.0            256                   1.00       1.00
 
- screening(init1)                320.895   0.1       323.219   0.1            256                   0.99       0.99
- screening(wfs)                  259.684   0.1       259.960   0.1            256                   1.00       1.00
- screening(density)               48.174   0.0        54.381   0.0            256                   0.89       0.89
- screening(cchi0q0)             1185.585   0.5      1189.108   0.5            256                   1.00       1.00
- screening(cchi0)             198202.169  91.7    198230.547  91.6           7168                   1.00       1.00
- screening(q-loop,end)          1246.615   0.6      1248.286   0.6           7424                   1.00       1.00

- subtotal                     201313.002  93.1    201355.695  93.0                                  1.00       1.00

 Partitioning of sigma
- sigma                         14644.382   6.8     14847.406   6.9            256                   0.99       0.99
 
- setup_sigma                     132.358   0.1       132.806   0.1            256                   1.00       1.00
- sigma(rdkss)                    145.283   0.1       145.328   0.1            256                   1.00       1.00
- sigma(hqp_init)                  49.288   0.0        49.305   0.0            256                   1.00       1.00
- sigma(getW)                     338.596   0.2       538.289   0.2            256                   0.63       0.63
- sigma(calc_sigx_me)             488.780   0.2       488.841   0.2            256                   1.00       1.00
- sigma(calc_sigc_me)           13409.342   6.2     13411.371   6.2            512                   1.00       1.00

- subtotal                      14624.635   6.8     14827.216   6.9                                  0.99       0.99

 Partitioning of calc_sigc_me
- calc_sigc_me                  13409.341   6.2     13411.371   6.2            512                   1.00       1.00
 
- calc_sigc_me(Init)              108.855   0.1       108.927   0.1            512                   1.00       1.00
- calc_sigc_me(Init q)          12579.847   5.8     12581.538   5.8          22528                   1.00       1.00
- calc_sigc_me(loop)              713.512   0.3       713.708   0.3          22528                   1.00       1.00

- subtotal                      13406.752   6.2     13408.791   6.2                                  1.00       1.00

 Partitioning of  fourdp (upwards partitioning)
- fourdp                            4.546   0.0         7.868   0.0           8704                   0.58       0.58
 

- subtotal                          4.546   0.0         7.868   0.0                                  0.58       0.58
-
-Synchronisation (=leave_test) and MPI calls 
- communic.MPI                      2.106   0.0         2.149   0.0            256                   0.98       0.98
-
- subtotal                          0.000   0.0         0.000   0.0                                  0.00       0.00

 Additional information
- timana(1)                         0.283   0.0         0.291   0.0            256                   0.97       0.97
- total timab                      30.576   0.0        30.579   0.0       50701818                   1.00       1.00
- xc:fourdp                         2.034   0.0         2.026   0.0           6144                   1.00       1.00
- calc_sigc_me(1)            34734298.828****** 123661652.737******          42240                   0.28       0.28
- calc_sigc_me(rho_tw_g)          124.503   0.1       124.695   0.1          42240                   1.00       1.00
- calc_sigc_me(2)                   0.482   0.0         0.489   0.0         267360                   0.98       0.98
- calc_sigc_me(sigma_me)            1.161   0.0         1.168   0.0         267360                   0.99       0.99
- calc_sigc_me(ac_lrk_appl        575.601   0.3       576.032   0.3          42240                   1.00       1.00
- calc_sigc_me(ac_lrk_diag      11775.980   5.4     11777.920   5.4          22528                   1.00       1.00
- cchi0                        198201.873  91.7    198230.295  91.6           7168                   1.00       1.00

 timana : in multi dataset mode, the more detailed analysis is not done.

================================================================================

 Suggested references for the acknowledgment of ABINIT usage.

 The users of ABINIT have little formal obligations with respect to the ABINIT group
 (those specified in the GNU General Public License, http://www.gnu.org/copyleft/gpl.txt).
 However, it is common practice in the scientific literature,
 to acknowledge the efforts of people that have made the research possible.
 In this spirit, please find below suggested citations of work written by ABINIT developers,
 corresponding to implementations inside of ABINIT that you have used in the present run.
 Note also that it will be of great value to readers of publications presenting these results,
 to read papers enabling them to understand the theoretical formalism and details
 of the ABINIT implementation.
 For information on why they are suggested, see also https://docs.abinit.org/theory/acknowledgments.
-
- [1] The Abinit project: Impact, environment and recent developments.
- Computer Phys. Comm. 248, 107042 (2020).
- X.Gonze, B. Amadon, G. Antonius, F.Arnardi, L.Baguet, J.-M.Beuken,
- J.Bieder, F.Bottin, J.Bouchet, E.Bousquet, N.Brouwer, F.Bruneval,
- G.Brunin, T.Cavignac, J.-B. Charraud, Wei Chen, M.Cote, S.Cottenier,
- J.Denier, G.Geneste, Ph.Ghosez, M.Giantomassi, Y.Gillet, O.Gingras,
- D.R.Hamann, G.Hautier, Xu He, N.Helbig, N.Holzwarth, Y.Jia, F.Jollet,
- W.Lafargue-Dit-Hauret, K.Lejaeghere, M.A.L.Marques, A.Martin, C.Martins,
- H.P.C. Miranda, F.Naccarato, K. Persson, G.Petretto, V.Planes, Y.Pouillon,
- S.Prokhorenko, F.Ricci, G.-M.Rignanese, A.H.Romero, M.M.Schmitt, M.Torrent,
- M.J.van Setten, B.Van Troeye, M.J.Verstraete, G.Zerah and J.W.Zwanzig
- Comment: the fifth generic paper describing the ABINIT project.
- Note that a version of this paper, that is not formatted for Computer Phys. Comm. 
- is available at https://www.abinit.org/sites/default/files/ABINIT20.pdf .
- The licence allows the authors to put it on the Web.
- DOI and bibtex: see https://docs.abinit.org/theory/bibliography/#gonze2020
-
- [2] Optimized norm-conserving Vanderbilt pseudopotentials.
- D.R. Hamann, Phys. Rev. B 88, 085117 (2013).
- Comment: Some pseudopotential generated using the ONCVPSP code were used.
- DOI and bibtex: see https://docs.abinit.org/theory/bibliography/#hamann2013
-
- [3] ABINIT: Overview, and focus on selected capabilities
- J. Chem. Phys. 152, 124102 (2020).
- A. Romero, D.C. Allan, B. Amadon, G. Antonius, T. Applencourt, L.Baguet,
- J.Bieder, F.Bottin, J.Bouchet, E.Bousquet, F.Bruneval,
- G.Brunin, D.Caliste, M.Cote,
- J.Denier, C. Dreyer, Ph.Ghosez, M.Giantomassi, Y.Gillet, O.Gingras,
- D.R.Hamann, G.Hautier, F.Jollet, G. Jomard,
- A.Martin, 
- H.P.C. Miranda, F.Naccarato, G.Petretto, N.A. Pike, V.Planes,
- S.Prokhorenko, T. Rangel, F.Ricci, G.-M.Rignanese, M.Royo, M.Stengel, M.Torrent,
- M.J.van Setten, B.Van Troeye, M.J.Verstraete, J.Wiktor, J.W.Zwanziger, and X.Gonze.
- Comment: a global overview of ABINIT, with focus on selected capabilities .
- Note that a version of this paper, that is not formatted for J. Chem. Phys 
- is available at https://www.abinit.org/sites/default/files/ABINIT20_JPC.pdf .
- The licence allows the authors to put it on the Web.
- DOI and bibtex: see https://docs.abinit.org/theory/bibliography/#romero2020
-
- [4] Recent developments in the ABINIT software package.
- Computer Phys. Comm. 205, 106 (2016).
- X.Gonze, F.Jollet, F.Abreu Araujo, D.Adams, B.Amadon, T.Applencourt,
- C.Audouze, J.-M.Beuken, J.Bieder, A.Bokhanchuk, E.Bousquet, F.Bruneval
- D.Caliste, M.Cote, F.Dahm, F.Da Pieve, M.Delaveau, M.Di Gennaro,
- B.Dorado, C.Espejo, G.Geneste, L.Genovese, A.Gerossier, M.Giantomassi,
- Y.Gillet, D.R.Hamann, L.He, G.Jomard, J.Laflamme Janssen, S.Le Roux,
- A.Levitt, A.Lherbier, F.Liu, I.Lukacevic, A.Martin, C.Martins,
- M.J.T.Oliveira, S.Ponce, Y.Pouillon, T.Rangel, G.-M.Rignanese,
- A.H.Romero, B.Rousseau, O.Rubel, A.A.Shukri, M.Stankovski, M.Torrent,
- M.J.Van Setten, B.Van Troeye, M.J.Verstraete, D.Waroquier, J.Wiktor,
- B.Xu, A.Zhou, J.W.Zwanziger.
- Comment: the fourth generic paper describing the ABINIT project.
- Note that a version of this paper, that is not formatted for Computer Phys. Comm. 
- is available at https://www.abinit.org/sites/default/files/ABINIT16.pdf .
- The licence allows the authors to put it on the Web.
- DOI and bibtex: see https://docs.abinit.org/theory/bibliography/#gonze2016
-
- And optionally:
-
- [5] ABINIT: First-principles approach of materials and nanosystem properties.
- Computer Phys. Comm. 180, 2582-2615 (2009).
- X. Gonze, B. Amadon, P.-M. Anglade, J.-M. Beuken, F. Bottin, P. Boulanger, F. Bruneval,
- D. Caliste, R. Caracas, M. Cote, T. Deutsch, L. Genovese, Ph. Ghosez, M. Giantomassi
- S. Goedecker, D.R. Hamann, P. Hermet, F. Jollet, G. Jomard, S. Leroux, M. Mancini, S. Mazevet,
- M.J.T. Oliveira, G. Onida, Y. Pouillon, T. Rangel, G.-M. Rignanese, D. Sangalli, R. Shaltaf,
- M. Torrent, M.J. Verstraete, G. Zerah, J.W. Zwanziger
- Comment: the third generic paper describing the ABINIT project.
- Note that a version of this paper, that is not formatted for Computer Phys. Comm. 
- is available at https://www.abinit.org/sites/default/files/ABINIT_CPC_v10.pdf .
- The licence allows the authors to put it on the Web.
- DOI and bibtex: see https://docs.abinit.org/theory/bibliography/#gonze2009
-
- Proc.   0 individual time (sec): cpu=        843.1  wall=        845.7

================================================================================

 Calculation completed.
.Delivered   0 WARNINGs and   0 COMMENTs to log file.
+Overall time at end (sec) : cpu=     216229.5  wall=     216490.3
