  ABINIT 9.9.2
  
-instrng: 28 lines of input have been read from file ../globals

-instrng: 44 lines of input have been read from file run.abi


--- !COMMENT
src_file: m_dtfil.F90
src_line: 1441
message: |
    Output file: run.abo already exists.
...


--- !COMMENT
src_file: m_dtfil.F90
src_line: 1465
message: |
    Renaming old: run.abo to: run.abo0001
...


.Version 9.9.2 of ABINIT 
.(MPI version, prepared for a x86_64_linux_gnu11.2 computer) 

.Copyright (C) 1998-2022 ABINIT group . 
 ABINIT comes with ABSOLUTELY NO WARRANTY.
 It is free software, and you are welcome to redistribute it
 under certain conditions (GNU General Public License,
 see ~abinit/COPYING or http://www.gnu.org/copyleft/gpl.txt).

 ABINIT is a project of the Universite Catholique de Louvain,
 Corning Inc. and other collaborators, see ~abinit/doc/developers/contributors.txt .
 Please read https://docs.abinit.org/theory/acknowledgments for suggested
 acknowledgments of the ABINIT effort.
 For more information, see https://www.abinit.org .

.Starting date : Fri 17 Feb 2023.
- ( at 10h09 )
  

 ++++++++++++++++++++++++++++++++++++++++++++++++++++++++++++++++++++++++++++++

 === Build Information === 
  Version       : 9.9.2
  Build target  : x86_64_linux_gnu11.2
  Build date    : 20230216

 === Compiler Suite === 
  C compiler       : gnu11.2
  C++ compiler     : gnu11.2
  Fortran compiler : gnu11.2
  CFLAGS           : -g -O2
  CXXFLAGS         : -g -O2 -mtune=native -march=native
  FCFLAGS          : -g -O2 -fbacktrace -ffree-line-length-none -fallow-argument-mismatc ...
  FC_LDFLAGS       : 

 === Optimizations === 
  Debug level        : basic
  Optimization level : standard
  Architecture       : amd_epyc

 === Multicore === 
  Parallel build : /opt/cray/pe/mpich/8.1.12/ofi/gnu/9.1
  Parallel I/O   : 
  openMP support : no
  GPU support    : 

 === Connectors / Fallbacks === 
  LINALG flavor  : netlib
  FFT flavor     : fftw3
  HDF5           : yes
  NetCDF         : yes
  NetCDF Fortran : yes
  LibXC          : yes
  Wannier90      : no

 === Experimental features === 
  Exports             : 
  GW double-precision : no

 ++++++++++++++++++++++++++++++++++++++++++++++++++++++++++++++++++++++++++++++


 ++++++++++++++++++++++++++++++++++++++++++++++++++++++++++++++++++++++++++++++
 Default optimizations:
   --- None ---


 ++++++++++++++++++++++++++++++++++++++++++++++++++++++++++++++++++++++++++++++


 ++++++++++++++++++++++++++++++++++++++++++++++++++++++++++++++++++++++++++++++
 CPP options activated during the build:

                    CC_GNU                   CXX_GNU                    FC_GNU
 
 HAVE_FC_ALLOCATABLE_DT...             HAVE_FC_ASYNC         HAVE_FC_BACKTRACE
 
  HAVE_FC_COMMAND_ARGUMENT      HAVE_FC_COMMAND_LINE        HAVE_FC_CONTIGUOUS
 
           HAVE_FC_CPUTIME              HAVE_FC_EXIT             HAVE_FC_FLUSH
 
             HAVE_FC_GAMMA            HAVE_FC_GETENV   HAVE_FC_IEEE_ARITHMETIC
 
   HAVE_FC_IEEE_EXCEPTIONS          HAVE_FC_INT_QUAD             HAVE_FC_IOMSG
 
     HAVE_FC_ISO_C_BINDING  HAVE_FC_ISO_FORTRAN_2008        HAVE_FC_LONG_LINES
 
        HAVE_FC_MOVE_ALLOC  HAVE_FC_ON_THE_FLY_SHAPE           HAVE_FC_PRIVATE
 
         HAVE_FC_PROTECTED           HAVE_FC_SHIFTLR         HAVE_FC_STREAM_IO
 
            HAVE_FC_SYSTEM                HAVE_FFTW3            HAVE_FFTW3_MPI
 
          HAVE_FORTRAN2003                 HAVE_HDF5        HAVE_LIBPAW_ABINIT
 
      HAVE_LIBTETRA_ABINIT                HAVE_LIBXC        HAVE_LINALG_GEMM3M
 
     HAVE_LINALG_SCALAPACK                  HAVE_MPI                 HAVE_MPI2
 
       HAVE_MPI_IALLGATHER       HAVE_MPI_IALLREDUCE        HAVE_MPI_IALLTOALL
 
       HAVE_MPI_IALLTOALLV           HAVE_MPI_IBCAST         HAVE_MPI_IGATHERV
 
        HAVE_MPI_INTEGER16               HAVE_MPI_IO HAVE_MPI_TYPE_CREATE_S...
 
               HAVE_NETCDF       HAVE_NETCDF_FORTRAN             HAVE_OS_LINUX
 
         HAVE_TIMER_ABINIT                                                      
 ++++++++++++++++++++++++++++++++++++++++++++++++++++++++++++++++++++++++++++++

- input  file    -> run.abi
- output file    -> run.abo
- root for input  files -> ../indata_ac
- root for output files -> outdata_ac

-instrng: 28 lines of input have been read from file ../globals

-instrng: 44 lines of input have been read from file run.abi

 For atom type 1, psp file is ../Li.psp8
 For atom type 2, psp file is ../F.psp8
  read the values zionpsp=  3.0 , pspcod=   8 , lmax=   1
  read the values zionpsp=  7.0 , pspcod=   8 , lmax=   2

 inpspheads: deduce mpsang = 3, n1xccc = 2501.

======================================================= 
 invars1m : enter jdtset= 1

 symlatt: the Bravais lattice is cF (face-centered cubic)
  xred   is defined in input file
 ingeo: takes atomic coordinates from input array xred

--- !COMMENT
src_file: m_ingeo.F90
src_line: 890
message: |
    The tolerance on symmetries =   1.000E-05 is bigger than 1.0e-8.
    In order to avoid spurious effects, the atomic coordinates have been
    symmetrized before storing them in the dataset internal variable.
    So, do not be surprised by the fact that your input variables (xcart, xred, ...)
    do not correspond exactly to the ones echoed by ABINIT, the latter being used to do the calculations.
    This is not a problem per se.
    Still, in order to avoid this symmetrization (e.g. for specific debugging/development), decrease tolsym to 1.0e-8 or lower,
    or (much preferred) use input primitive vectors that are accurate to better than 1.0e-8.
    This message will only be printed once, even if there are other datasets where tolsym is bigger than 1.0e-8.
...


 symlatt: the Bravais lattice is cF (face-centered cubic)

 symlatt: the Bravais lattice is cF (face-centered cubic)
 symspgr: spgroup= 225  Fm -3 m   (=Oh^5)
 symspgr: optical characteristics = isotropic

======================================================= 
 invars1m : enter jdtset= 2

 symlatt: the Bravais lattice is cF (face-centered cubic)
  xred   is defined in input file
 ingeo: takes atomic coordinates from input array xred

 symlatt: the Bravais lattice is cF (face-centered cubic)

 symlatt: the Bravais lattice is cF (face-centered cubic)
 symspgr: spgroup= 225  Fm -3 m   (=Oh^5)
 symspgr: optical characteristics = isotropic

--- !WARNING
src_file: m_mpinfo.F90
src_line: 2337
message: |
    nproc_spkpt= 128 >= nkpt= 29* nsppol= 1
    The number of processors is larger than nkpt*nsppol. This is a WASTE.
     Ignore this warning if this is not a GS run
...

 For input ecut=  4.000000E+01 best grid ngfft=      32      32      32
       max ecut=  4.400006E+01

 ==== FFT mesh ====
  FFT mesh divisions ........................    32   32   32
  Augmented FFT divisions ...................    33   33   32
  FFT algorithm .............................   312
  FFT cache size ............................    16
 getmpw: optimal value of mpw= 1363

--- !WARNING
src_file: m_mpinfo.F90
src_line: 2337
message: |
    nproc_spkpt= 128 >= nkpt= 29* nsppol= 1
    The number of processors is larger than nkpt*nsppol. This is a WASTE.
     Ignore this warning if this is not a GS run
...

 For input ecut=  4.000000E+01 best grid ngfft=      32      32      32
       max ecut=  4.400006E+01

 ==== FFT mesh ====
  FFT mesh divisions ........................    32   32   32
  Augmented FFT divisions ...................    33   33   32
  FFT algorithm .............................   312
  FFT cache size ............................    16
 getmpw: optimal value of mpw= 1363

 DATASET    1 : space group Fm -3 m (#225); Bravais cF (face-center cubic)

 getdim_nloc: deduce lmnmax  =  13, lnmax  =   5,
                      lmnmaxso=  13, lnmaxso=   5.
memory: analysis of memory needs
================================================================================
 Values of the parameters that define the memory need for DATASET  1.
     intxc =       0    ionmov =       0      iscf =       7    lmnmax =       5
     lnmax =       5     mgfft =      32  mpssoang =       3    mqgrid =    3001
     natom =       2  nloc_mem =       1    nspden =       1   nspinor =       1
    nsppol =       1      nsym =      48    n1xccc =    2501    ntypat =       2
    occopt =       1   xclevel =       2
-    mband =         480        mffmem =           1         mkmem =           1
       mpw =        1363          nfft =       32768          nkpt =          29
================================================================================
P This job should need less than                      28.943 Mbytes of memory.
  Rough estimation (10% accuracy) of disk space for files :
_ WF disk file :    289.506 Mbytes ; DEN or POT disk file :      0.252 Mbytes.
================================================================================

 Biggest array : cg(disk), with      9.9849 MBytes.

 DATASET    2 : space group Fm -3 m (#225); Bravais cF (face-center cubic)

 getdim_nloc: deduce lmnmax  =  13, lnmax  =   5,
                      lmnmaxso=  13, lnmaxso=   5.
memory: analysis of memory needs
================================================================================
 Values of the parameters that define the memory need for DATASET  2.
     intxc =       0    ionmov =       0      iscf =       7    lmnmax =       5
     lnmax =       5     mgfft =      32  mpssoang =       3    mqgrid =    3001
     natom =       2  nloc_mem =       1    nspden =       1   nspinor =       1
    nsppol =       1      nsym =      48    n1xccc =    2501    ntypat =       2
    occopt =       1   xclevel =       2
-    mband =         480        mffmem =           1         mkmem =           1
       mpw =        1363          nfft =       32768          nkpt =          29
================================================================================
P This job should need less than                      28.943 Mbytes of memory.
  Rough estimation (10% accuracy) of disk space for files :
_ WF disk file :    289.506 Mbytes ; DEN or POT disk file :      0.252 Mbytes.
================================================================================

 Biggest array : cg(disk), with      9.9849 MBytes.
--------------------------------------------------------------------------------
------------- Echo of variables that govern the present computation ------------
--------------------------------------------------------------------------------
-
- outvars: echo of selected default values                                      
-   iomode0 =  0 , fftalg0 =312 , wfoptalg0 =  0
-
- outvars: echo of global parameters not present in the input file              
-  max_nthreads =    0
-
 -outvars: echo values of preprocessed input variables --------
 
 These variables are accessible in NetCDF format (outdata_ac_OUT.nc)

            acell      7.5778017929E+00  7.5778017929E+00  7.5778017929E+00 Bohr
              amu      6.94100000E+00  1.89984032E+01
             bdgw           1       8       1       8
           diemac      1.20000000E+01
             ecut      4.00000000E+01 Hartree
          ecuteps      1.20000000E+01 Hartree
         ecutsigx      4.00000000E+01 Hartree
          ecutwfn      4.00000000E+01 Hartree
-          fftalg         312
           getscr1          0
           getscr2         -1
           istwfk        1    0    0    0    1    0    0    0    0    0
                         0    0    0    0    0    0    0    0    0    0
                         1    0    0    0    0    0    0    0    0
              ixc          11
           jdtset        1    2
              kpt      0.00000000E+00  0.00000000E+00  0.00000000E+00
                       1.25000000E-01  0.00000000E+00  0.00000000E+00
                       2.50000000E-01  0.00000000E+00  0.00000000E+00
                       3.75000000E-01  0.00000000E+00  0.00000000E+00
                       5.00000000E-01  0.00000000E+00  0.00000000E+00
                       1.25000000E-01  1.25000000E-01  0.00000000E+00
                       2.50000000E-01  1.25000000E-01  0.00000000E+00
                       3.75000000E-01  1.25000000E-01  0.00000000E+00
                       5.00000000E-01  1.25000000E-01  0.00000000E+00
                      -3.75000000E-01  1.25000000E-01  0.00000000E+00
                      -2.50000000E-01  1.25000000E-01  0.00000000E+00
                      -1.25000000E-01  1.25000000E-01  0.00000000E+00
                       2.50000000E-01  2.50000000E-01  0.00000000E+00
                       3.75000000E-01  2.50000000E-01  0.00000000E+00
                       5.00000000E-01  2.50000000E-01  0.00000000E+00
                      -3.75000000E-01  2.50000000E-01  0.00000000E+00
                      -2.50000000E-01  2.50000000E-01  0.00000000E+00
                       3.75000000E-01  3.75000000E-01  0.00000000E+00
                       5.00000000E-01  3.75000000E-01  0.00000000E+00
                      -3.75000000E-01  3.75000000E-01  0.00000000E+00
                       5.00000000E-01  5.00000000E-01  0.00000000E+00
                       3.75000000E-01  2.50000000E-01  1.25000000E-01
                       5.00000000E-01  2.50000000E-01  1.25000000E-01
                      -3.75000000E-01  2.50000000E-01  1.25000000E-01
                       5.00000000E-01  3.75000000E-01  1.25000000E-01
                      -3.75000000E-01  3.75000000E-01  1.25000000E-01
                      -2.50000000E-01  3.75000000E-01  1.25000000E-01
                      -3.75000000E-01  5.00000000E-01  1.25000000E-01
                      -2.50000000E-01  5.00000000E-01  2.50000000E-01
            kptgw      0.00000000E+00  0.00000000E+00  0.00000000E+00
                       5.00000000E-01  5.00000000E-01  0.00000000E+00
         kptrlatt        8    0    0      0    8    0      0    0    8
          kptrlen      4.28665203E+01
P           mkmem           1
            natom           2
            nband         480
           ndtset           2
            ngfft          32      32      32
             nkpt          29
           nkptgw           2
           npweps         181
          npwsigx        1363
           npwwfn        1363
            nstep          50
             nsym          48
           ntypat           2
              occ      2.000000  2.000000  2.000000  2.000000  2.000000  0.000000
                       0.000000  0.000000  0.000000  0.000000  0.000000  0.000000
                       0.000000  0.000000  0.000000  0.000000  0.000000  0.000000
                       0.000000  0.000000  0.000000  0.000000  0.000000  0.000000
                       0.000000  0.000000  0.000000  0.000000  0.000000  0.000000
                       0.000000  0.000000  0.000000  0.000000  0.000000  0.000000
                       0.000000  0.000000  0.000000  0.000000  0.000000  0.000000
                       0.000000  0.000000  0.000000  0.000000  0.000000  0.000000
                       0.000000  0.000000  0.000000  0.000000  0.000000  0.000000
                       0.000000  0.000000  0.000000  0.000000  0.000000  0.000000
                       0.000000  0.000000  0.000000  0.000000  0.000000  0.000000
                       0.000000  0.000000  0.000000  0.000000  0.000000  0.000000
                       0.000000  0.000000  0.000000  0.000000  0.000000  0.000000
                       0.000000  0.000000  0.000000  0.000000  0.000000  0.000000
                       0.000000  0.000000  0.000000  0.000000  0.000000  0.000000
                       0.000000  0.000000  0.000000  0.000000  0.000000  0.000000
                       0.000000  0.000000  0.000000  0.000000  0.000000  0.000000
                       0.000000  0.000000  0.000000  0.000000  0.000000  0.000000
                       0.000000  0.000000  0.000000  0.000000  0.000000  0.000000
                       0.000000  0.000000  0.000000  0.000000  0.000000  0.000000
                       0.000000  0.000000  0.000000  0.000000  0.000000  0.000000
                       0.000000  0.000000  0.000000  0.000000  0.000000  0.000000
                       0.000000  0.000000  0.000000  0.000000  0.000000  0.000000
                       0.000000  0.000000  0.000000  0.000000  0.000000  0.000000
                       0.000000  0.000000  0.000000  0.000000  0.000000  0.000000
                       0.000000  0.000000  0.000000  0.000000  0.000000  0.000000
                       0.000000  0.000000  0.000000  0.000000  0.000000  0.000000
                       0.000000  0.000000  0.000000  0.000000  0.000000  0.000000
                       0.000000  0.000000  0.000000  0.000000  0.000000  0.000000
                       0.000000  0.000000  0.000000  0.000000  0.000000  0.000000
                       0.000000  0.000000  0.000000  0.000000  0.000000  0.000000
                       0.000000  0.000000  0.000000  0.000000  0.000000  0.000000
                       0.000000  0.000000  0.000000  0.000000  0.000000  0.000000
                       0.000000  0.000000  0.000000  0.000000  0.000000  0.000000
                       0.000000  0.000000  0.000000  0.000000  0.000000  0.000000
                       0.000000  0.000000  0.000000  0.000000  0.000000  0.000000
                       0.000000  0.000000  0.000000  0.000000  0.000000  0.000000
                       0.000000  0.000000  0.000000  0.000000  0.000000  0.000000
                       0.000000  0.000000  0.000000  0.000000  0.000000  0.000000
                       0.000000  0.000000  0.000000  0.000000  0.000000  0.000000
                       0.000000  0.000000  0.000000  0.000000  0.000000  0.000000
                       0.000000  0.000000  0.000000  0.000000  0.000000  0.000000
                       0.000000  0.000000  0.000000  0.000000  0.000000  0.000000
                       0.000000  0.000000  0.000000  0.000000  0.000000  0.000000
                       0.000000  0.000000  0.000000  0.000000  0.000000  0.000000
                       0.000000  0.000000  0.000000  0.000000  0.000000  0.000000
                       0.000000  0.000000  0.000000  0.000000  0.000000  0.000000
                       0.000000  0.000000  0.000000  0.000000  0.000000  0.000000
                       0.000000  0.000000  0.000000  0.000000  0.000000  0.000000
                       0.000000  0.000000  0.000000  0.000000  0.000000  0.000000
                       0.000000  0.000000  0.000000  0.000000  0.000000  0.000000
                       0.000000  0.000000  0.000000  0.000000  0.000000  0.000000
                       0.000000  0.000000  0.000000  0.000000  0.000000  0.000000
                       0.000000  0.000000  0.000000  0.000000  0.000000  0.000000
                       0.000000  0.000000  0.000000  0.000000  0.000000  0.000000
                       0.000000  0.000000  0.000000  0.000000  0.000000  0.000000
                       0.000000  0.000000  0.000000  0.000000  0.000000  0.000000
                       0.000000  0.000000  0.000000  0.000000  0.000000  0.000000
                       0.000000  0.000000  0.000000  0.000000  0.000000  0.000000
                       0.000000  0.000000  0.000000  0.000000  0.000000  0.000000
                       0.000000  0.000000  0.000000  0.000000  0.000000  0.000000
                       0.000000  0.000000  0.000000  0.000000  0.000000  0.000000
                       0.000000  0.000000  0.000000  0.000000  0.000000  0.000000
                       0.000000  0.000000  0.000000  0.000000  0.000000  0.000000
                       0.000000  0.000000  0.000000  0.000000  0.000000  0.000000
                       0.000000  0.000000  0.000000  0.000000  0.000000  0.000000
                       0.000000  0.000000  0.000000  0.000000  0.000000  0.000000
                       0.000000  0.000000  0.000000  0.000000  0.000000  0.000000
                       0.000000  0.000000  0.000000  0.000000  0.000000  0.000000
                       0.000000  0.000000  0.000000  0.000000  0.000000  0.000000
                       0.000000  0.000000  0.000000  0.000000  0.000000  0.000000
                       0.000000  0.000000  0.000000  0.000000  0.000000  0.000000
                       0.000000  0.000000  0.000000  0.000000  0.000000  0.000000
                       0.000000  0.000000  0.000000  0.000000  0.000000  0.000000
                       0.000000  0.000000  0.000000  0.000000  0.000000  0.000000
                       0.000000  0.000000  0.000000  0.000000  0.000000  0.000000
                       0.000000  0.000000  0.000000  0.000000  0.000000  0.000000
                       0.000000  0.000000  0.000000  0.000000  0.000000  0.000000
                       0.000000  0.000000  0.000000  0.000000  0.000000  0.000000
                       0.000000  0.000000  0.000000  0.000000  0.000000  0.000000
        optdriver1          3
        optdriver2          4
            rprim      0.0000000000E+00  5.0000000000E-01  5.0000000000E-01
                       5.0000000000E-01  0.0000000000E+00  5.0000000000E-01
                       5.0000000000E-01  5.0000000000E-01  0.0000000000E+00
          spgroup         225
           symrel      1  0  0   0  1  0   0  0  1      -1  0  0   0 -1  0   0  0 -1
                       0 -1  1   0 -1  0   1 -1  0       0  1 -1   0  1  0  -1  1  0
                      -1  0  0  -1  0  1  -1  1  0       1  0  0   1  0 -1   1 -1  0
                       0  1 -1   1  0 -1   0  0 -1       0 -1  1  -1  0  1   0  0  1
                      -1  0  0  -1  1  0  -1  0  1       1  0  0   1 -1  0   1  0 -1
                       0 -1  1   1 -1  0   0 -1  0       0  1 -1  -1  1  0   0  1  0
                       1  0  0   0  0  1   0  1  0      -1  0  0   0  0 -1   0 -1  0
                       0  1 -1   0  0 -1   1  0 -1       0 -1  1   0  0  1  -1  0  1
                      -1  0  1  -1  1  0  -1  0  0       1  0 -1   1 -1  0   1  0  0
                       0 -1  0   1 -1  0   0 -1  1       0  1  0  -1  1  0   0  1 -1
                       1  0 -1   0  0 -1   0  1 -1      -1  0  1   0  0  1   0 -1  1
                       0  1  0   0  0  1   1  0  0       0 -1  0   0  0 -1  -1  0  0
                       1  0 -1   0  1 -1   0  0 -1      -1  0  1   0 -1  1   0  0  1
                       0 -1  0   0 -1  1   1 -1  0       0  1  0   0  1 -1  -1  1  0
                      -1  0  1  -1  0  0  -1  1  0       1  0 -1   1  0  0   1 -1  0
                       0  1  0   1  0  0   0  0  1       0 -1  0  -1  0  0   0  0 -1
                       0  0 -1   0  1 -1   1  0 -1       0  0  1   0 -1  1  -1  0  1
                       1 -1  0   0 -1  1   0 -1  0      -1  1  0   0  1 -1   0  1  0
                       0  0  1   1  0  0   0  1  0       0  0 -1  -1  0  0   0 -1  0
                      -1  1  0  -1  0  0  -1  0  1       1 -1  0   1  0  0   1  0 -1
                       0  0  1   0  1  0   1  0  0       0  0 -1   0 -1  0  -1  0  0
                       1 -1  0   0 -1  0   0 -1  1      -1  1  0   0  1  0   0  1 -1
                       0  0 -1   1  0 -1   0  1 -1       0  0  1  -1  0  1   0 -1  1
                      -1  1  0  -1  0  1  -1  0  0       1 -1  0   1  0 -1   1  0  0
           timopt          -1
            typat      1  2
              wtk        0.00195    0.01563    0.01563    0.01563    0.00781    0.01172
                         0.04688    0.04688    0.04688    0.04688    0.04688    0.02344
                         0.01172    0.04688    0.04688    0.04688    0.02344    0.01172
                         0.04688    0.02344    0.00586    0.04688    0.09375    0.04688
                         0.04688    0.09375    0.04688    0.02344    0.01172
           xangst      0.0000000000E+00  0.0000000000E+00  0.0000000000E+00
                       2.0050000000E+00  2.0050000000E+00  2.0050000000E+00
            xcart      0.0000000000E+00  0.0000000000E+00  0.0000000000E+00
                       3.7889008964E+00  3.7889008964E+00  3.7889008964E+00
             xred      0.0000000000E+00  0.0000000000E+00  0.0000000000E+00
                       5.0000000000E-01  5.0000000000E-01  5.0000000000E-01
            znucl        3.00000    9.00000

================================================================================

 chkinp: Checking input parameters for consistency, jdtset=   1.

 chkinp: Checking input parameters for consistency, jdtset=   2.
 DATA TYPE INFORMATION: 
 REAL:      Data type name: REAL(DP) 
            Kind value:      8
            Precision:      15
            Smallest nonnegligible quantity relative to 1: 0.22204460E-015
            Smallest positive number:                      0.22250739E-307
            Largest representable number:                  0.17976931E+309
 INTEGER:   Data type name: INTEGER(default) 
            Kind value: 4
            Bit size:   32
            Largest representable number: 2147483647
 LOGICAL:   Data type name: LOGICAL 
            Kind value: 4
 CHARACTER: Data type name: CHARACTER             Kind value: 1

  ==== OpenMP parallelism is OFF ====
 
  ==== Using MPI-2 specifications ==== 
  MPI-IO support is ON
  xmpi_tag_ub ................    536870911
  xmpi_bsize_ch ..............            1
  xmpi_bsize_int .............            4
  xmpi_bsize_sp ..............            4
  xmpi_bsize_dp ..............            8
  xmpi_bsize_spc .............            8
  xmpi_bsize_dpc .............           16
  xmpio_bsize_frm ............            4
  xmpi_address_kind ..........            8
  xmpi_offset_kind ...........            8
  MPI_WTICK ..................    2.9000000000000002E-008

================================================================================
== DATASET  1 ==================================================================
-   mpi_nproc: 128, omp_nthreads: -1 (-1 if OMP is not activated)


--- !COMMENT
src_file: m_xgScalapack.F90
src_line: 230
message: |
    xgScalapack in auto mode
...

 mkfilename: getwfk from: ../outdata_gs_DS2_WFK


 getdim_nloc: deduce lmnmax  =  13, lnmax  =   5,
                      lmnmaxso=  13, lnmaxso=   5.
 Exchange-correlation functional for the present dataset will be:
  GGA: Perdew-Burke-Ernzerhof functional - ixc=11
 Citation for XC functional:
  J.P.Perdew, K.Burke, M.Ernzerhof, PRL 77, 3865 (1996)

 SCREENING: Calculation of the susceptibility and dielectric matrices 

 Based on a program developped by R.W. Godby, V. Olevano, G. Onida, and L. Reining.
 Incorporated in ABINIT by V. Olevano, G.-M. Rignanese, and M. Torrent.
.Using single precision arithmetic ; gwpc =  4

 Unit cell volume ucvol=  1.0878518E+02 bohr^3
 Angles (23,13,12)=  6.00000000E+01  6.00000000E+01  6.00000000E+01 degrees

 getcut: wavevector=  0.0000  0.0000  0.0000  ngfft=  32  32  32
         ecut(hartree)=     40.000   => boxcut(ratio)=   2.09762

 ==== Dense FFT mesh used for densities and potentials ====
  FFT mesh divisions ........................    32   32   32
  Augmented FFT divisions ...................    33   33   32
  FFT algorithm .............................   312
  FFT cache size ............................    16
- pspini: atom type   1  psp file is ../Li.psp8
- pspatm: opening atomic psp file    ../Li.psp8
- Li    ONCVPSP-3.2.3.1  r_core=   1.40824   1.10935
-  3.00000   3.00000    170503                znucl, zion, pspdat
    8   11    1    4       400   0.00000      pspcod,pspxc,lmax,lloc,mmax,r2well
    3.99000000000000    0.00000000000000    0.00000000000000   rchrg,fchrg,qchrg
     nproj     2     2
     extension_switch     1
  valence charge (before rescaling) integrates to:    2.5832705624729813     
  pspatm : epsatm=    2.74345787
         --- l  ekb(1:nproj) -->
             0   -4.951544   -1.544797
             1   -2.250662   -0.474685
 pspatm: atomic psp has been read  and splines computed

- pspini: atom type   2  psp file is ../F.psp8
- pspatm: opening atomic psp file    ../F.psp8
- F     ONCVPSP-3.2.3.1  r_core=   1.30942   1.45782   1.60379
-  9.00000   7.00000    170504                znucl, zion, pspdat
    8   11    2    4       600   0.00000      pspcod,pspxc,lmax,lloc,mmax,r2well
    5.99000000000000    2.50000000000000    0.00000000000000   rchrg,fchrg,qchrg
     nproj     2     2     1
     extension_switch     1
  valence charge (before rescaling) integrates to:    6.9996418942439869     
  pspatm : epsatm=    4.87626060
         --- l  ekb(1:nproj) -->
             0    6.519403    1.070094
             1   -3.955629   -1.291931
             2   -2.441503
 pspatm: atomic psp has been read  and splines computed

   7.61971847E+01                                ecore*ucvol(ha*bohr**3)
 ==== Info on pseudopotentials ====
  Norm-conserving pseudopotentials
  Number of pseudopotentials ..    2
  Number of types of atoms   ..    2
  Scalar calculation (no spin-orbit term)
  Nonlocal part applied using Legendre polynomials
  Max number of non-local projectors over l and type   2
  Highest angular momentum +1 .......   3
  Max number of (l,n)   components ..   5
  Max number of (l,m,n) components ..   5

 Pseudo-Core Charge Info: 
   Number of radial points for pseudo-core charge .. 2501
   XC core-correction treatment (optnlxccc) ........    1
   Radius for pseudo-core charge for each type ..... 

  - Atom type    1 has pseudo-core radius ..  0.0000
  - Atom type    2 has pseudo-core radius ..  5.9900

 Info on the Q-grid used for form factors in spline form: 
   Number of q-points for radial functions ffspl ..   3001
   Number of q-points for vlspl ...................   3001
   vloc is computed in Reciprocal Space
   model core charge treated in real-space

  XC functional for type 1 is 11
  Pseudo valence available: yes
  XC functional for type 2 is 11
  Pseudo valence available: yes


 GW calculation type              =    0
 zcut to avoid poles in chi0 [eV] =   0.100000

 Reading eigenvalues from: ../outdata_gs_DS2_WFK , with iomode: IO_MODE_FORTRAN
 wfk_read_eigenvalues_io , wall:  0.42 [s] , cpu:  0.31 [s] <<< TIME
 wfk_read_eigenvalues , wall:  0.42 [s] , cpu:  0.31 [s] <<< TIME

 Sorting g-vecs for an output of states on an unique "big" PW basis.
 Since the number of g's to be written on file
 was 0 or too large, it has been set to the max. value.,
 computed from the union of the sets of G vectors for the different k-points.
 Number of G-vectors is:  1807

  ==== Info on the Cryst% object ====
 Real(R)+Recip(G) space primitive vectors, cartesian coordinates (Bohr,Bohr^-1):
 R(1)=  0.0000000  3.7889009  3.7889009  G(1)= -0.1319644  0.1319644  0.1319644
 R(2)=  3.7889009  0.0000000  3.7889009  G(2)=  0.1319644 -0.1319644  0.1319644
 R(3)=  3.7889009  3.7889009  0.0000000  G(3)=  0.1319644  0.1319644 -0.1319644
 Unit cell volume ucvol=  1.0878518E+02 bohr^3
 Angles (23,13,12)=  6.00000000E+01  6.00000000E+01  6.00000000E+01 degrees
 Time-reversal symmetry is present
 Reduced atomic positions [iatom, xred, symbol]:
    1)    0.0000000  0.0000000  0.0000000  Li
    2)    0.5000000  0.5000000  0.5000000   F
 ==== K-mesh for the wavefunctions ====
 Number of points in the irreducible wedge :    29
 Reduced coordinates and weights : 

     1)     0.00000000E+00  0.00000000E+00  0.00000000E+00       0.00195
     2)     1.25000000E-01  0.00000000E+00  0.00000000E+00       0.01563
     3)     2.50000000E-01  0.00000000E+00  0.00000000E+00       0.01563
     4)     3.75000000E-01  0.00000000E+00  0.00000000E+00       0.01563
     5)     5.00000000E-01  0.00000000E+00  0.00000000E+00       0.00781
     6)     1.25000000E-01  1.25000000E-01  0.00000000E+00       0.01172
     7)     2.50000000E-01  1.25000000E-01  0.00000000E+00       0.04688
     8)     3.75000000E-01  1.25000000E-01  0.00000000E+00       0.04688
     9)     5.00000000E-01  1.25000000E-01  0.00000000E+00       0.04688
    10)    -3.75000000E-01  1.25000000E-01  0.00000000E+00       0.04688
    11)    -2.50000000E-01  1.25000000E-01  0.00000000E+00       0.04688
    12)    -1.25000000E-01  1.25000000E-01  0.00000000E+00       0.02344
    13)     2.50000000E-01  2.50000000E-01  0.00000000E+00       0.01172
    14)     3.75000000E-01  2.50000000E-01  0.00000000E+00       0.04688
    15)     5.00000000E-01  2.50000000E-01  0.00000000E+00       0.04688
    16)    -3.75000000E-01  2.50000000E-01  0.00000000E+00       0.04688
    17)    -2.50000000E-01  2.50000000E-01  0.00000000E+00       0.02344
    18)     3.75000000E-01  3.75000000E-01  0.00000000E+00       0.01172
    19)     5.00000000E-01  3.75000000E-01  0.00000000E+00       0.04688
    20)    -3.75000000E-01  3.75000000E-01  0.00000000E+00       0.02344
    21)     5.00000000E-01  5.00000000E-01  0.00000000E+00       0.00586
    22)     3.75000000E-01  2.50000000E-01  1.25000000E-01       0.04688
    23)     5.00000000E-01  2.50000000E-01  1.25000000E-01       0.09375
    24)    -3.75000000E-01  2.50000000E-01  1.25000000E-01       0.04688
    25)     5.00000000E-01  3.75000000E-01  1.25000000E-01       0.04688
    26)    -3.75000000E-01  3.75000000E-01  1.25000000E-01       0.09375
    27)    -2.50000000E-01  3.75000000E-01  1.25000000E-01       0.04688
    28)    -3.75000000E-01  5.00000000E-01  1.25000000E-01       0.02344
    29)    -2.50000000E-01  5.00000000E-01  2.50000000E-01       0.01172

 Together with 48 symmetry operations and time-reversal symmetry 
 yields   512 points in the full Brillouin Zone.


 ==== Q-mesh for the screening function ====
 Number of points in the irreducible wedge :    29
 Reduced coordinates and weights : 

     1)     0.00000000E+00  0.00000000E+00  0.00000000E+00       0.00195
     2)     1.25000000E-01  0.00000000E+00  0.00000000E+00       0.01563
     3)     2.50000000E-01  0.00000000E+00  0.00000000E+00       0.01563
     4)     3.75000000E-01  0.00000000E+00  0.00000000E+00       0.01563
     5)     5.00000000E-01  0.00000000E+00  0.00000000E+00       0.00781
     6)     1.25000000E-01  1.25000000E-01  0.00000000E+00       0.01172
     7)     2.50000000E-01  1.25000000E-01  0.00000000E+00       0.04688
     8)     3.75000000E-01  1.25000000E-01  0.00000000E+00       0.04688
     9)     5.00000000E-01  1.25000000E-01  0.00000000E+00       0.04688
    10)    -3.75000000E-01  1.25000000E-01  0.00000000E+00       0.04688
    11)    -2.50000000E-01  1.25000000E-01  0.00000000E+00       0.04688
    12)    -1.25000000E-01  1.25000000E-01  0.00000000E+00       0.02344
    13)     2.50000000E-01  2.50000000E-01  0.00000000E+00       0.01172
    14)     3.75000000E-01  2.50000000E-01  0.00000000E+00       0.04688
    15)     5.00000000E-01  2.50000000E-01  0.00000000E+00       0.04688
    16)    -3.75000000E-01  2.50000000E-01  0.00000000E+00       0.04688
    17)    -2.50000000E-01  2.50000000E-01  0.00000000E+00       0.02344
    18)     3.75000000E-01  3.75000000E-01  0.00000000E+00       0.01172
    19)     5.00000000E-01  3.75000000E-01  0.00000000E+00       0.04688
    20)    -3.75000000E-01  3.75000000E-01  0.00000000E+00       0.02344
    21)     5.00000000E-01  5.00000000E-01  0.00000000E+00       0.00586
    22)     3.75000000E-01  2.50000000E-01  1.25000000E-01       0.04688
    23)     5.00000000E-01  2.50000000E-01  1.25000000E-01       0.09375
    24)    -3.75000000E-01  2.50000000E-01  1.25000000E-01       0.04688
    25)     5.00000000E-01  3.75000000E-01  1.25000000E-01       0.04688
    26)    -3.75000000E-01  3.75000000E-01  1.25000000E-01       0.09375
    27)    -2.50000000E-01  3.75000000E-01  1.25000000E-01       0.04688
    28)    -3.75000000E-01  5.00000000E-01  1.25000000E-01       0.02344
    29)    -2.50000000E-01  5.00000000E-01  2.50000000E-01       0.01172

 Together with 48 symmetry operations and time-reversal symmetry 
 yields   512 points in the full Brillouin Zone.


 Optimal value for ng0sh: [2, 2, 1]
  Due to umklapp processes : ecutepspg0=    11.000014958450489     

 setmesh: npwwfn        =     1363; Max (m1,m2,m3)   =      7     7     7
          npweps/npwsigx=      181; Max (mm1,mm2,mm3)=      6     6     5
          mG0 added     =   2  2  1
 calculated ecutwfn          =  39.875 [Ha] 
 calculated ecutsigx/ecuteps =  11.000 [Ha]
 using method =  2 with ecuteff =  92.762 [Ha]
 Finding a FFT mesh compatible with all the symmetries
 setmesh: divisor mesh 1 1 1
 setmesh: FFT mesh size selected  =    24x   24x   24
          total number of points  =        13824

vcp%i_sz 4.173335E+03

 vcoul_init : cutoff-mode = AUXILIARY_FUNCTION
 q-points for optical limit:   1
     1)      0.000010    0.000020    0.000030

 ==== FFT mesh used for oscillator strengths ====
  FFT mesh divisions ........................    24   24   24
  Augmented FFT divisions ...................    25   25   24
  FFT algorithm .............................   312
  FFT cache size ............................    16
 Top of valence:  -0.8913 (eV)
 Bottom of conduction:   8.3444 (eV)
 Fundamental gap:  9.2357 (eV)

 Fermi level: 3.7266  (eV) 

 Memory needed for Fourier components u(G):      2.7 [Mb] <<< MEM
 Storing wavefunctions in single precision as `enable_gw_dpc="no"`
 Memory needed for real-space u(r):     27.5 [Mb] <<< MEM
 Memory needed for bks_tab:      1.7 [Mb] <<< MEM
 wfd_init , wall:  0.04 [s] , cpu:  0.04 [s] <<< TIME
 ==== Info on the Wfd% object ====
  Number of irreducible k-points ........ 29
  Number of spinorial components ........ 1
  Number of spin-density components ..... 1
  Number of spin polarizations .......... 1
  Plane wave cutoff energy ..............  40.0
  Max number of G-vectors ............... 1363
  Total number of FFT points ............ 13824
  Number of FFT points treated by me .... 13824


 ==== FFT mesh for wavefunctions ====
  FFT mesh divisions ........................    24   24   24
  Augmented FFT divisions ...................    25   25   24
  FFT algorithm .............................   312
  FFT cache size ............................    16

 Total number of (b,k,s) states stored by this rank: 261
 Memory allocated for Fourier components u(G):      2.7 [Mb] <<< MEM
 Memory allocated for real-space u(r):      0.0 [Mb] <<< MEM
 Memory needed for wfd%s datastructure:      0.0 [Mb] <<< MEM
 Memory needed for wfd%s(0)%k datastructure:      0.0 [Mb] <<< MEM
 Memory allocated for Kdata array:      0.0 [Mb] <<< MEM



 wfd_read_wfk: Reading file: ../outdata_gs_DS2_WFK  with iomode: IO_MODE_MPI , master_only: yes
 If MPI-IO is too slow, use the command line option `abinit --enforce-fortran-io ...` 
  to make the master proc read data with Fortran-IO and then broadcast (requires more memory)
 About to read: 261  (b, k, s) states in total.
 For spin: 1 , will read: 29  k-points out of: 29
    Reading kpt [1/29] spin [1/1] , wall:  0.10 [s] , cpu:  0.10 [s] <<< TIME
    Reading kpt [2/29] spin [1/1] , wall:  0.09 [s] , cpu:  0.09 [s] <<< TIME
    Reading kpt [3/29] spin [1/1] , wall:  0.09 [s] , cpu:  0.09 [s] <<< TIME
    Reading kpt [4/29] spin [1/1] , wall:  0.03 [s] , cpu:  0.03 [s] <<< TIME
    Reading kpt [5/29] spin [1/1] , wall:  0.02 [s] , cpu:  0.02 [s] <<< TIME
    Reading kpt [6/29] spin [1/1] , wall:  0.06 [s] , cpu:  0.06 [s] <<< TIME
    Reading kpt [7/29] spin [1/1] , wall:  0.03 [s] , cpu:  0.03 [s] <<< TIME
    Reading kpt [8/29] spin [1/1] , wall:  0.02 [s] , cpu:  0.02 [s] <<< TIME
    Reading kpt [9/29] spin [1/1] , wall:  0.02 [s] , cpu:  0.02 [s] <<< TIME
    Reading kpt [10/29] spin [1/1] , wall:  0.02 [s] , cpu:  0.02 [s] <<< TIME
 WFK IO , wall:  1.03 [s] , cpu:  1.03 [s] <<< TIME


 planewave contribution to nelect:   10.0000
 Number of electrons calculated from density =   10.0000; Expected =   10.0000
 average of density, n =  0.091924
 r_s =    1.3745
 omega_plasma =   29.2463 [eV]

 Total charge density [el/Bohr^3]
)     Maximum=    2.7976E+00  at reduced coord.    0.0000    0.0000    0.0000
)     Minimum=    5.7388E-03  at reduced coord.    0.2500    0.2500    0.2500
   Integrated=    1.0000E+01

 1/G**2 cut-off applied in the following step : cutoff-mode = CRYSTAL

 1/G**2 cut-off applied in the following step : cutoff-mode = CRYSTAL

 1/G**2 cut-off applied in the following step : cutoff-mode = CRYSTAL

 calculating chi0 at frequencies [eV] :
  1    0.000000E+00    0.000000E+00
  2    0.000000E+00    2.924628E+01
 Memory required for chi0 matrix=          0.5 [Mb].


--------------------------------------------------------------------------------
  q-point number  1        q = ( 0.000000, 0.000000, 0.000000) [r.l.u.]
--------------------------------------------------------------------------------
 Q-points for long wave-length limit. #   1
     1)      0.000010    0.000020    0.000030

 Using spectral method for the imaginary part =  0
 Using symmetries to sum only over the IBZ_q  =  1
 Using faster algorithm based on time reversal symmetry.
 Memory needed for bbp_ks_distrb: 450.0  [Mb] <<< MEM
 Will sum 580 (b,b',k,s) states in chi0q0.
 Calculating chi0(q=(0,0,0),omega,G,G")

 ==== Little Group Info ==== 
  External point: [ 0.0000E+00,  0.0000E+00,  0.0000E+00]
  Number of points in the IBZ defined by little group:  29/512
  Number of operations in the little group: 96/48
  No time-reversal symmetry with zero umklapp: 48
  No time-reversal symmetry with non-zero umklapp:  0

  time-reversal symmetry with zero umklapp: 48
  time-reversal symmetry with non-zero umklapp:  0

 Calculation status: 29  k-points to be completed
 ik=    1/ 512 spin= 1 done by mpi rank:  0
 ik=    2/ 512 spin= 1 done by mpi rank:  0
 ik=   10/ 512 spin= 1 done by mpi rank:  0
 ik=   18/ 512 spin= 1 done by mpi rank:  0
 ik=   26/ 512 spin= 1 done by mpi rank:  0
 ik=   30/ 512 spin= 1 done by mpi rank:  0
 ik=   36/ 512 spin= 1 done by mpi rank:  0
 ik=   60/ 512 spin= 1 done by mpi rank:  0
 ik=   84/ 512 spin= 1 done by mpi rank:  0
 ik=  108/ 512 spin= 1 done by mpi rank:  0
 ik=  132/ 512 spin= 1 done by mpi rank:  0
 ik=  156/ 512 spin= 1 done by mpi rank:  0
 ik=  168/ 512 spin= 1 done by mpi rank:  0
 ik=  174/ 512 spin= 1 done by mpi rank:  0
 ik=  198/ 512 spin= 1 done by mpi rank:  0
 ik=  222/ 512 spin= 1 done by mpi rank:  0
 ik=  246/ 512 spin= 1 done by mpi rank:  0
 ik=  258/ 512 spin= 1 done by mpi rank:  0
 ik=  264/ 512 spin= 1 done by mpi rank:  0
 ik=  288/ 512 spin= 1 done by mpi rank:  0
 ik=  300/ 512 spin= 1 done by mpi rank:  0
 ik=  303/ 512 spin= 1 done by mpi rank:  0
 ik=  327/ 512 spin= 1 done by mpi rank:  0
 ik=  375/ 512 spin= 1 done by mpi rank:  0
 ik=  399/ 512 spin= 1 done by mpi rank:  0
 ik=  423/ 512 spin= 1 done by mpi rank:  0
 ik=  471/ 512 spin= 1 done by mpi rank:  0
 ik=  495/ 512 spin= 1 done by mpi rank:  0
 ik=  507/ 512 spin= 1 done by mpi rank:  0
 cpu_time =       0.8, wall_time =       0.8
  chi0(G,G') at the    1 th omega   0.0000   0.0000 [eV]
  chi0(q =  1, omega =   1, G,G')
       1       2       3       4       5       6       7       8       9
    1  -0.000  -0.000   0.000   0.000  -0.000  -0.000   0.000   0.000  -0.000
       -0.000   0.000  -0.000  -0.000   0.000   0.000  -0.000  -0.000   0.000

    2  -0.000  -5.367  -0.372  -1.074  -1.981  -1.074  -1.981  -1.074  -1.981
       -0.000   0.000   0.000   0.000   0.000   0.000   0.000   0.000   0.000

    3   0.000  -0.372  -5.367  -1.981  -1.074  -1.981  -1.074  -1.981  -1.074
        0.000  -0.000   0.000  -0.000   0.000  -0.000   0.000   0.000   0.000

    4   0.000  -1.074  -1.981  -5.367  -0.372  -1.074  -1.981  -1.074  -1.981
        0.000  -0.000   0.000   0.000   0.000  -0.000   0.000   0.000   0.000

    5  -0.000  -1.981  -1.074  -0.372  -5.367  -1.981  -1.074  -1.981  -1.074
       -0.000  -0.000  -0.000  -0.000   0.000  -0.000  -0.000   0.000   0.000

    6  -0.000  -1.074  -1.981  -1.074  -1.981  -5.367  -0.372  -1.074  -1.981
       -0.000  -0.000   0.000   0.000   0.000   0.000   0.000   0.000   0.000

    7   0.000  -1.981  -1.074  -1.981  -1.074  -0.372  -5.367  -1.981  -1.074
        0.000  -0.000  -0.000  -0.000   0.000  -0.000   0.000   0.000   0.000

    8   0.000  -1.074  -1.981  -1.074  -1.981  -1.074  -1.981  -5.367  -0.372
        0.000  -0.000  -0.000  -0.000  -0.000  -0.000  -0.000   0.000   0.000

    9  -0.000  -1.981  -1.074  -1.981  -1.074  -1.981  -1.074  -0.372  -5.367
       -0.000  -0.000  -0.000  -0.000  -0.000  -0.000  -0.000  -0.000   0.000

  chi0(G,G') at the    2 th omega   0.0000  29.2463 [eV]
  chi0(q =  1, omega =   2, G,G')
       1       2       3       4       5       6       7       8       9
    1  -0.000  -0.000   0.000   0.000  -0.000  -0.000   0.000   0.000  -0.000
       -0.000   0.000  -0.000  -0.000   0.000   0.000  -0.000  -0.000   0.000

    2  -0.000  -3.013   0.225  -0.146  -0.831  -0.146  -0.831  -0.146  -0.831
       -0.000   0.000   0.000  -0.000  -0.000  -0.000   0.000   0.000   0.000

    3   0.000   0.225  -3.013  -0.831  -0.146  -0.831  -0.146  -0.831  -0.146
        0.000  -0.000   0.000  -0.000  -0.000  -0.000  -0.000   0.000   0.000

    4   0.000  -0.146  -0.831  -3.013   0.225  -0.146  -0.831  -0.146  -0.831
        0.000   0.000   0.000   0.000   0.000   0.000   0.000   0.000   0.000

    5  -0.000  -0.831  -0.146   0.225  -3.013  -0.831  -0.146  -0.831  -0.146
       -0.000   0.000   0.000  -0.000   0.000  -0.000   0.000   0.000   0.000

    6  -0.000  -0.146  -0.831  -0.146  -0.831  -3.013   0.225  -0.146  -0.831
       -0.000   0.000   0.000  -0.000   0.000   0.000   0.000   0.000   0.000

    7   0.000  -0.831  -0.146  -0.831  -0.146   0.225  -3.013  -0.831  -0.146
        0.000  -0.000   0.000  -0.000  -0.000  -0.000   0.000   0.000   0.000

    8   0.000  -0.146  -0.831  -0.146  -0.831  -0.146  -0.831  -3.013   0.225
        0.000  -0.000  -0.000  -0.000  -0.000  -0.000  -0.000   0.000   0.000

    9  -0.000  -0.831  -0.146  -0.831  -0.146  -0.831  -0.146   0.225  -3.013
       -0.000  -0.000  -0.000  -0.000  -0.000  -0.000  -0.000  -0.000   0.000

 Analyzing long wavelength limit for several q
 For q-point:  0.000010 0.000020 0.000030
  dielectric constant =   1.9701
  dielectric constant without local fields =   2.0831

  Average fulfillment of the sum rule on Im[epsilon] for q-point    1 :    103.52  [%]


--------------------------------------------------------------------------------
  q-point number  2        q = ( 0.125000, 0.000000, 0.000000) [r.l.u.]
--------------------------------------------------------------------------------
 Using spectral method for the imaginary part =  0
 Using symmetries to sum only over the IBZ_q  =  1
 Using faster algorithm based on time reversal symmetry.
 Memory needed for bbp_ks_distrb: 450.0  [Mb] <<< MEM
 Will sum 2400 (b,b',k,s) states in chi0.
 Calculating chi0(q,omega,G,G")

 ==== Little Group Info ==== 
  External point: [ 1.2500E-01,  0.0000E+00,  0.0000E+00]
  Number of points in the IBZ defined by little group:  120/512
  Number of operations in the little group: 12/48
  No time-reversal symmetry with zero umklapp:  6
  No time-reversal symmetry with non-zero umklapp:  0

  time-reversal symmetry with zero umklapp:  6
  time-reversal symmetry with non-zero umklapp:  0

 Calculation status: 120 k-points to be completed
 ik=    1/ 512 spin=  1 done by mpi rank:  0
 ik=    2/ 512 spin=  1 done by mpi rank:  0
 ik=    3/ 512 spin=  1 done by mpi rank:  0
 ik=    4/ 512 spin=  1 done by mpi rank:  0
 ik=    5/ 512 spin=  1 done by mpi rank:  0
 ik=   10/ 512 spin=  1 done by mpi rank:  0
 ik=   11/ 512 spin=  1 done by mpi rank:  0
 ik=   12/ 512 spin=  1 done by mpi rank:  0
 ik=   13/ 512 spin=  1 done by mpi rank:  0
 ik=   18/ 512 spin=  1 done by mpi rank:  0
 ik=   19/ 512 spin=  1 done by mpi rank:  0
 ik=   20/ 512 spin=  1 done by mpi rank:  0
 ik=   21/ 512 spin=  1 done by mpi rank:  0
 ik=   26/ 512 spin=  1 done by mpi rank:  0
 ik=   27/ 512 spin=  1 done by mpi rank:  0
 ik=   30/ 512 spin=  1 done by mpi rank:  0
 ik=   31/ 512 spin=  1 done by mpi rank:  0
 ik=   36/ 512 spin=  1 done by mpi rank:  0
 ik=   37/ 512 spin=  1 done by mpi rank:  0
 ik=   38/ 512 spin=  1 done by mpi rank:  0
 ik=   39/ 512 spin=  1 done by mpi rank:  0
 ik=   42/ 512 spin=  1 done by mpi rank:  0
 ik=   43/ 512 spin=  1 done by mpi rank:  0
 ik=   60/ 512 spin=  1 done by mpi rank:  0
 ik=   61/ 512 spin=  1 done by mpi rank:  0
 ik=   62/ 512 spin=  1 done by mpi rank:  0
 ik=   63/ 512 spin=  1 done by mpi rank:  0
 ik=   66/ 512 spin=  1 done by mpi rank:  0
 ik=   67/ 512 spin=  1 done by mpi rank:  0
 ik=   84/ 512 spin=  1 done by mpi rank:  0
 ik=   85/ 512 spin=  1 done by mpi rank:  0
 ik=   86/ 512 spin=  1 done by mpi rank:  0
 ik=   87/ 512 spin=  1 done by mpi rank:  0
 ik=   90/ 512 spin=  1 done by mpi rank:  0
 ik=   91/ 512 spin=  1 done by mpi rank:  0
 ik=  108/ 512 spin=  1 done by mpi rank:  0
 ik=  109/ 512 spin=  1 done by mpi rank:  0
 ik=  110/ 512 spin=  1 done by mpi rank:  0
 ik=  111/ 512 spin=  1 done by mpi rank:  0
 ik=  114/ 512 spin=  1 done by mpi rank:  0
 ik=  115/ 512 spin=  1 done by mpi rank:  0
 ik=  132/ 512 spin=  1 done by mpi rank:  0
 ik=  133/ 512 spin=  1 done by mpi rank:  0
 ik=  134/ 512 spin=  1 done by mpi rank:  0
 ik=  135/ 512 spin=  1 done by mpi rank:  0
 ik=  138/ 512 spin=  1 done by mpi rank:  0
 ik=  139/ 512 spin=  1 done by mpi rank:  0
 ik=  156/ 512 spin=  1 done by mpi rank:  0
 ik=  157/ 512 spin=  1 done by mpi rank:  0
 ik=  158/ 512 spin=  1 done by mpi rank:  0
 ik=  168/ 512 spin=  1 done by mpi rank:  0
 ik=  169/ 512 spin=  1 done by mpi rank:  0
 ik=  174/ 512 spin=  1 done by mpi rank:  0
 ik=  175/ 512 spin=  1 done by mpi rank:  0
 ik=  176/ 512 spin=  1 done by mpi rank:  0
 ik=  177/ 512 spin=  1 done by mpi rank:  0
 ik=  180/ 512 spin=  1 done by mpi rank:  0
 ik=  181/ 512 spin=  1 done by mpi rank:  0
 ik=  198/ 512 spin=  1 done by mpi rank:  0
 ik=  199/ 512 spin=  1 done by mpi rank:  0
 ik=  200/ 512 spin=  1 done by mpi rank:  0
 ik=  201/ 512 spin=  1 done by mpi rank:  0
 ik=  204/ 512 spin=  1 done by mpi rank:  0
 ik=  205/ 512 spin=  1 done by mpi rank:  0
 ik=  222/ 512 spin=  1 done by mpi rank:  0
 ik=  223/ 512 spin=  1 done by mpi rank:  0
 ik=  224/ 512 spin=  1 done by mpi rank:  0
 ik=  225/ 512 spin=  1 done by mpi rank:  0
 ik=  228/ 512 spin=  1 done by mpi rank:  0
 ik=  229/ 512 spin=  1 done by mpi rank:  0
 ik=  246/ 512 spin=  1 done by mpi rank:  0
 ik=  247/ 512 spin=  1 done by mpi rank:  0
 ik=  248/ 512 spin=  1 done by mpi rank:  0
 ik=  258/ 512 spin=  1 done by mpi rank:  0
 ik=  259/ 512 spin=  1 done by mpi rank:  0
 ik=  264/ 512 spin=  1 done by mpi rank:  0
 ik=  265/ 512 spin=  1 done by mpi rank:  0
 ik=  266/ 512 spin=  1 done by mpi rank:  0
 ik=  267/ 512 spin=  1 done by mpi rank:  0
 ik=  270/ 512 spin=  1 done by mpi rank:  0
 ik=  271/ 512 spin=  1 done by mpi rank:  0
 ik=  288/ 512 spin=  1 done by mpi rank:  0
 ik=  289/ 512 spin=  1 done by mpi rank:  0
 ik=  290/ 512 spin=  1 done by mpi rank:  0
 ik=  300/ 512 spin=  1 done by mpi rank:  0
 ik=  303/ 512 spin=  1 done by mpi rank:  0
 ik=  304/ 512 spin=  1 done by mpi rank:  0
 ik=  305/ 512 spin=  1 done by mpi rank:  0
 ik=  306/ 512 spin=  1 done by mpi rank:  0
 ik=  327/ 512 spin=  1 done by mpi rank:  0
 ik=  328/ 512 spin=  1 done by mpi rank:  0
 ik=  329/ 512 spin=  1 done by mpi rank:  0
 ik=  330/ 512 spin=  1 done by mpi rank:  0
 ik=  331/ 512 spin=  1 done by mpi rank:  0
 ik=  332/ 512 spin=  1 done by mpi rank:  0
 ik=  333/ 512 spin=  1 done by mpi rank:  0
 ik=  334/ 512 spin=  1 done by mpi rank:  0
 ik=  375/ 512 spin=  1 done by mpi rank:  0
 ik=  377/ 512 spin=  1 done by mpi rank:  0
 ik=  379/ 512 spin=  1 done by mpi rank:  0
 ik=  380/ 512 spin=  1 done by mpi rank:  0
 ik=  399/ 512 spin=  1 done by mpi rank:  0
 ik=  400/ 512 spin=  1 done by mpi rank:  0
 ik=  401/ 512 spin=  1 done by mpi rank:  0
 ik=  402/ 512 spin=  1 done by mpi rank:  0
 ik=  423/ 512 spin=  1 done by mpi rank:  0
 ik=  424/ 512 spin=  1 done by mpi rank:  0
 ik=  425/ 512 spin=  1 done by mpi rank:  0
 ik=  426/ 512 spin=  1 done by mpi rank:  0
 ik=  427/ 512 spin=  1 done by mpi rank:  0
 ik=  428/ 512 spin=  1 done by mpi rank:  0
 ik=  429/ 512 spin=  1 done by mpi rank:  0
 ik=  430/ 512 spin=  1 done by mpi rank:  0
 ik=  471/ 512 spin=  1 done by mpi rank:  0
 ik=  472/ 512 spin=  1 done by mpi rank:  0
 ik=  473/ 512 spin=  1 done by mpi rank:  0
 ik=  474/ 512 spin=  1 done by mpi rank:  0
 ik=  495/ 512 spin=  1 done by mpi rank:  0
 ik=  496/ 512 spin=  1 done by mpi rank:  0
 ik=  507/ 512 spin=  1 done by mpi rank:  0
 cpu_time =       0.9, wall_time =       0.9
  chi0(G,G') at the    1 th omega   0.0000   0.0000 [eV]
  chi0(q =  2, omega =   1, G,G')
       1       2       3       4       5       6       7       8       9
    1  -0.292   0.409  -0.384  -0.012   0.242  -0.012   0.242  -0.012   0.242
        0.000  -0.000  -0.000  -0.000  -0.000  -0.000  -0.000  -0.000  -0.000

    2   0.409  -5.535  -0.365  -1.235  -2.223  -1.235  -2.223  -1.235  -2.223
        0.000   0.000   0.000   0.000   0.000   0.000   0.000   0.000   0.000

    3  -0.384  -0.365  -5.054  -1.678  -0.895  -1.678  -0.895  -1.678  -0.895
        0.000  -0.000   0.000  -0.000   0.000   0.000   0.000  -0.000   0.000

    4  -0.012  -1.235  -1.678  -5.314  -0.434  -0.934  -2.013  -0.934  -2.013
        0.000  -0.000   0.000   0.000   0.000   0.000   0.000  -0.000   0.000

    5   0.242  -2.223  -0.895  -0.434  -5.462  -2.013  -1.265  -2.013  -1.265
        0.000  -0.000  -0.000  -0.000   0.000  -0.000  -0.000  -0.000   0.000

    6  -0.012  -1.235  -1.678  -0.934  -2.013  -5.314  -0.434  -0.934  -2.013
        0.000  -0.000  -0.000  -0.000   0.000   0.000   0.000  -0.000   0.000

    7   0.242  -2.223  -0.895  -2.013  -1.265  -0.434  -5.462  -2.013  -1.265
        0.000  -0.000  -0.000  -0.000   0.000  -0.000   0.000  -0.000   0.000

    8  -0.012  -1.235  -1.678  -0.934  -2.013  -0.934  -2.013  -5.314  -0.434
        0.000  -0.000   0.000   0.000   0.000   0.000   0.000   0.000   0.000

    9   0.242  -2.223  -0.895  -2.013  -1.265  -2.013  -1.265  -0.434  -5.462
        0.000  -0.000  -0.000  -0.000  -0.000  -0.000  -0.000  -0.000   0.000

  chi0(G,G') at the    2 th omega   0.0000  29.2463 [eV]
  chi0(q =  2, omega =   2, G,G')
       1       2       3       4       5       6       7       8       9
    1  -0.092   0.189  -0.173  -0.028   0.091  -0.028   0.091  -0.028   0.091
        0.000  -0.000  -0.000  -0.000  -0.000  -0.000  -0.000  -0.000  -0.000

    2   0.189  -3.303   0.222  -0.255  -1.033  -0.255  -1.033  -0.255  -1.033
        0.000   0.000   0.000   0.000   0.000   0.000   0.000   0.000   0.000

    3  -0.173   0.222  -2.646  -0.616  -0.044  -0.616  -0.044  -0.616  -0.044
        0.000  -0.000   0.000  -0.000   0.000   0.000   0.000  -0.000   0.000

    4  -0.028  -0.255  -0.616  -2.919   0.205  -0.054  -0.847  -0.054  -0.847
        0.000  -0.000   0.000   0.000   0.000   0.000   0.000  -0.000   0.000

    5   0.091  -1.033  -0.044   0.205  -3.134  -0.847  -0.264  -0.847  -0.264
        0.000  -0.000  -0.000  -0.000   0.000  -0.000  -0.000  -0.000   0.000

    6  -0.028  -0.255  -0.616  -0.054  -0.847  -2.919   0.205  -0.054  -0.847
        0.000  -0.000  -0.000  -0.000   0.000   0.000   0.000  -0.000   0.000

    7   0.091  -1.033  -0.044  -0.847  -0.264   0.205  -3.134  -0.847  -0.264
        0.000  -0.000  -0.000  -0.000   0.000  -0.000   0.000  -0.000   0.000

    8  -0.028  -0.255  -0.616  -0.054  -0.847  -0.054  -0.847  -2.919   0.205
        0.000  -0.000   0.000   0.000   0.000   0.000   0.000   0.000   0.000

    9   0.091  -1.033  -0.044  -0.847  -0.264  -0.847  -0.264   0.205  -3.134
        0.000  -0.000  -0.000  -0.000  -0.000  -0.000  -0.000  -0.000   0.000

  Average fulfillment of the sum rule on Im[epsilon] for q-point    2 :    105.49  [%]


--------------------------------------------------------------------------------
  q-point number  3        q = ( 0.250000, 0.000000, 0.000000) [r.l.u.]
--------------------------------------------------------------------------------
 Using spectral method for the imaginary part =  0
 Using symmetries to sum only over the IBZ_q  =  1
 Using faster algorithm based on time reversal symmetry.
 Memory needed for bbp_ks_distrb: 450.0  [Mb] <<< MEM
 Will sum 2400 (b,b',k,s) states in chi0.
 Calculating chi0(q,omega,G,G")

 ==== Little Group Info ==== 
  External point: [ 2.5000E-01,  0.0000E+00,  0.0000E+00]
  Number of points in the IBZ defined by little group:  120/512
  Number of operations in the little group: 12/48
  No time-reversal symmetry with zero umklapp:  6
  No time-reversal symmetry with non-zero umklapp:  0

  time-reversal symmetry with zero umklapp:  6
  time-reversal symmetry with non-zero umklapp:  0

 Calculation status: 120 k-points to be completed
 ik=    1/ 512 spin=  1 done by mpi rank:  0
 ik=    2/ 512 spin=  1 done by mpi rank:  0
 ik=    3/ 512 spin=  1 done by mpi rank:  0
 ik=    4/ 512 spin=  1 done by mpi rank:  0
 ik=    5/ 512 spin=  1 done by mpi rank:  0
 ik=   10/ 512 spin=  1 done by mpi rank:  0
 ik=   11/ 512 spin=  1 done by mpi rank:  0
 ik=   12/ 512 spin=  1 done by mpi rank:  0
 ik=   13/ 512 spin=  1 done by mpi rank:  0
 ik=   18/ 512 spin=  1 done by mpi rank:  0
 ik=   19/ 512 spin=  1 done by mpi rank:  0
 ik=   20/ 512 spin=  1 done by mpi rank:  0
 ik=   21/ 512 spin=  1 done by mpi rank:  0
 ik=   26/ 512 spin=  1 done by mpi rank:  0
 ik=   27/ 512 spin=  1 done by mpi rank:  0
 ik=   30/ 512 spin=  1 done by mpi rank:  0
 ik=   31/ 512 spin=  1 done by mpi rank:  0
 ik=   36/ 512 spin=  1 done by mpi rank:  0
 ik=   37/ 512 spin=  1 done by mpi rank:  0
 ik=   38/ 512 spin=  1 done by mpi rank:  0
 ik=   39/ 512 spin=  1 done by mpi rank:  0
 ik=   42/ 512 spin=  1 done by mpi rank:  0
 ik=   43/ 512 spin=  1 done by mpi rank:  0
 ik=   60/ 512 spin=  1 done by mpi rank:  0
 ik=   61/ 512 spin=  1 done by mpi rank:  0
 ik=   62/ 512 spin=  1 done by mpi rank:  0
 ik=   63/ 512 spin=  1 done by mpi rank:  0
 ik=   66/ 512 spin=  1 done by mpi rank:  0
 ik=   67/ 512 spin=  1 done by mpi rank:  0
 ik=   84/ 512 spin=  1 done by mpi rank:  0
 ik=   85/ 512 spin=  1 done by mpi rank:  0
 ik=   86/ 512 spin=  1 done by mpi rank:  0
 ik=   87/ 512 spin=  1 done by mpi rank:  0
 ik=   90/ 512 spin=  1 done by mpi rank:  0
 ik=   91/ 512 spin=  1 done by mpi rank:  0
 ik=  108/ 512 spin=  1 done by mpi rank:  0
 ik=  109/ 512 spin=  1 done by mpi rank:  0
 ik=  110/ 512 spin=  1 done by mpi rank:  0
 ik=  111/ 512 spin=  1 done by mpi rank:  0
 ik=  114/ 512 spin=  1 done by mpi rank:  0
 ik=  115/ 512 spin=  1 done by mpi rank:  0
 ik=  132/ 512 spin=  1 done by mpi rank:  0
 ik=  133/ 512 spin=  1 done by mpi rank:  0
 ik=  134/ 512 spin=  1 done by mpi rank:  0
 ik=  135/ 512 spin=  1 done by mpi rank:  0
 ik=  138/ 512 spin=  1 done by mpi rank:  0
 ik=  139/ 512 spin=  1 done by mpi rank:  0
 ik=  156/ 512 spin=  1 done by mpi rank:  0
 ik=  157/ 512 spin=  1 done by mpi rank:  0
 ik=  158/ 512 spin=  1 done by mpi rank:  0
 ik=  168/ 512 spin=  1 done by mpi rank:  0
 ik=  169/ 512 spin=  1 done by mpi rank:  0
 ik=  174/ 512 spin=  1 done by mpi rank:  0
 ik=  175/ 512 spin=  1 done by mpi rank:  0
 ik=  176/ 512 spin=  1 done by mpi rank:  0
 ik=  177/ 512 spin=  1 done by mpi rank:  0
 ik=  180/ 512 spin=  1 done by mpi rank:  0
 ik=  181/ 512 spin=  1 done by mpi rank:  0
 ik=  198/ 512 spin=  1 done by mpi rank:  0
 ik=  199/ 512 spin=  1 done by mpi rank:  0
 ik=  200/ 512 spin=  1 done by mpi rank:  0
 ik=  201/ 512 spin=  1 done by mpi rank:  0
 ik=  204/ 512 spin=  1 done by mpi rank:  0
 ik=  205/ 512 spin=  1 done by mpi rank:  0
 ik=  222/ 512 spin=  1 done by mpi rank:  0
 ik=  223/ 512 spin=  1 done by mpi rank:  0
 ik=  224/ 512 spin=  1 done by mpi rank:  0
 ik=  225/ 512 spin=  1 done by mpi rank:  0
 ik=  228/ 512 spin=  1 done by mpi rank:  0
 ik=  229/ 512 spin=  1 done by mpi rank:  0
 ik=  246/ 512 spin=  1 done by mpi rank:  0
 ik=  247/ 512 spin=  1 done by mpi rank:  0
 ik=  248/ 512 spin=  1 done by mpi rank:  0
 ik=  258/ 512 spin=  1 done by mpi rank:  0
 ik=  259/ 512 spin=  1 done by mpi rank:  0
 ik=  264/ 512 spin=  1 done by mpi rank:  0
 ik=  265/ 512 spin=  1 done by mpi rank:  0
 ik=  266/ 512 spin=  1 done by mpi rank:  0
 ik=  267/ 512 spin=  1 done by mpi rank:  0
 ik=  270/ 512 spin=  1 done by mpi rank:  0
 ik=  271/ 512 spin=  1 done by mpi rank:  0
 ik=  288/ 512 spin=  1 done by mpi rank:  0
 ik=  289/ 512 spin=  1 done by mpi rank:  0
 ik=  290/ 512 spin=  1 done by mpi rank:  0
 ik=  300/ 512 spin=  1 done by mpi rank:  0
 ik=  303/ 512 spin=  1 done by mpi rank:  0
 ik=  304/ 512 spin=  1 done by mpi rank:  0
 ik=  305/ 512 spin=  1 done by mpi rank:  0
 ik=  306/ 512 spin=  1 done by mpi rank:  0
 ik=  327/ 512 spin=  1 done by mpi rank:  0
 ik=  328/ 512 spin=  1 done by mpi rank:  0
 ik=  329/ 512 spin=  1 done by mpi rank:  0
 ik=  330/ 512 spin=  1 done by mpi rank:  0
 ik=  331/ 512 spin=  1 done by mpi rank:  0
 ik=  332/ 512 spin=  1 done by mpi rank:  0
 ik=  333/ 512 spin=  1 done by mpi rank:  0
 ik=  334/ 512 spin=  1 done by mpi rank:  0
 ik=  375/ 512 spin=  1 done by mpi rank:  0
 ik=  377/ 512 spin=  1 done by mpi rank:  0
 ik=  379/ 512 spin=  1 done by mpi rank:  0
 ik=  380/ 512 spin=  1 done by mpi rank:  0
 ik=  399/ 512 spin=  1 done by mpi rank:  0
 ik=  400/ 512 spin=  1 done by mpi rank:  0
 ik=  401/ 512 spin=  1 done by mpi rank:  0
 ik=  402/ 512 spin=  1 done by mpi rank:  0
 ik=  423/ 512 spin=  1 done by mpi rank:  0
 ik=  424/ 512 spin=  1 done by mpi rank:  0
 ik=  425/ 512 spin=  1 done by mpi rank:  0
 ik=  426/ 512 spin=  1 done by mpi rank:  0
 ik=  427/ 512 spin=  1 done by mpi rank:  0
 ik=  428/ 512 spin=  1 done by mpi rank:  0
 ik=  429/ 512 spin=  1 done by mpi rank:  0
 ik=  430/ 512 spin=  1 done by mpi rank:  0
 ik=  471/ 512 spin=  1 done by mpi rank:  0
 ik=  472/ 512 spin=  1 done by mpi rank:  0
 ik=  473/ 512 spin=  1 done by mpi rank:  0
 ik=  474/ 512 spin=  1 done by mpi rank:  0
 ik=  495/ 512 spin=  1 done by mpi rank:  0
 ik=  496/ 512 spin=  1 done by mpi rank:  0
 ik=  507/ 512 spin=  1 done by mpi rank:  0
 cpu_time =       0.9, wall_time =       0.9
  chi0(G,G') at the    1 th omega   0.0000   0.0000 [eV]
  chi0(q =  3, omega =   1, G,G')
       1       2       3       4       5       6       7       8       9
    1  -1.054   0.780  -0.685   0.205   0.624   0.205   0.624   0.205   0.624
        0.000  -0.000  -0.000  -0.000  -0.000  -0.000  -0.000  -0.000  -0.000

    2   0.780  -5.590  -0.344  -1.360  -2.399  -1.360  -2.399  -1.360  -2.399
        0.000   0.000   0.000   0.000   0.000   0.000   0.000   0.000   0.000

    3  -0.685  -0.344  -4.568  -1.330  -0.711  -1.330  -0.711  -1.330  -0.711
        0.000  -0.000   0.000  -0.000   0.000   0.000   0.000  -0.000   0.000

    4   0.205  -1.360  -1.330  -5.311  -0.592  -0.876  -2.093  -0.876  -2.093
        0.000  -0.000   0.000   0.000   0.000   0.000  -0.000  -0.000   0.000

    5   0.624  -2.399  -0.711  -0.592  -5.560  -2.093  -1.449  -2.093  -1.449
        0.000  -0.000  -0.000  -0.000   0.000  -0.000  -0.000  -0.000   0.000

    6   0.205  -1.360  -1.330  -0.876  -2.093  -5.311  -0.592  -0.876  -2.093
        0.000  -0.000  -0.000  -0.000   0.000   0.000   0.000  -0.000   0.000

    7   0.624  -2.399  -0.711  -2.093  -1.449  -0.592  -5.560  -2.093  -1.449
        0.000  -0.000  -0.000   0.000   0.000  -0.000   0.000   0.000   0.000

    8   0.205  -1.360  -1.330  -0.876  -2.093  -0.876  -2.093  -5.311  -0.592
        0.000  -0.000   0.000   0.000   0.000   0.000  -0.000   0.000   0.000

    9   0.624  -2.399  -0.711  -2.093  -1.449  -2.093  -1.449  -0.592  -5.560
        0.000  -0.000  -0.000  -0.000  -0.000  -0.000  -0.000  -0.000   0.000

  chi0(G,G') at the    2 th omega   0.0000  29.2463 [eV]
  chi0(q =  3, omega =   2, G,G')
       1       2       3       4       5       6       7       8       9
    1  -0.354   0.376  -0.311   0.012   0.230   0.012   0.230   0.012   0.230
        0.000  -0.000  -0.000  -0.000  -0.000  -0.000  -0.000  -0.000  -0.000

    2   0.376  -3.516   0.212  -0.365  -1.214  -0.365  -1.214  -0.365  -1.214
        0.000   0.000   0.000   0.000   0.000   0.000   0.000   0.000   0.000

    3  -0.311   0.212  -2.210  -0.401   0.043  -0.401   0.043  -0.401   0.043
        0.000  -0.000   0.000   0.000   0.000   0.000   0.000   0.000   0.000

    4   0.012  -0.365  -0.401  -2.863   0.145   0.000  -0.895   0.000  -0.895
        0.000  -0.000  -0.000   0.000   0.000   0.000  -0.000  -0.000   0.000

    5   0.230  -1.214   0.043   0.145  -3.269  -0.895  -0.394  -0.895  -0.394
        0.000  -0.000  -0.000  -0.000   0.000   0.000  -0.000  -0.000   0.000

    6   0.012  -0.365  -0.401   0.000  -0.895  -2.863   0.145   0.000  -0.895
        0.000  -0.000  -0.000  -0.000  -0.000   0.000   0.000  -0.000   0.000

    7   0.230  -1.214   0.043  -0.895  -0.394   0.145  -3.269  -0.895  -0.394
        0.000  -0.000  -0.000   0.000   0.000  -0.000   0.000   0.000   0.000

    8   0.012  -0.365  -0.401   0.000  -0.895   0.000  -0.895  -2.863   0.145
        0.000  -0.000  -0.000   0.000   0.000   0.000  -0.000   0.000   0.000

    9   0.230  -1.214   0.043  -0.895  -0.394  -0.895  -0.394   0.145  -3.269
        0.000  -0.000  -0.000  -0.000  -0.000  -0.000  -0.000  -0.000   0.000

  Average fulfillment of the sum rule on Im[epsilon] for q-point    3 :    105.00  [%]


--------------------------------------------------------------------------------
  q-point number  4        q = ( 0.375000, 0.000000, 0.000000) [r.l.u.]
--------------------------------------------------------------------------------
 Using spectral method for the imaginary part =  0
 Using symmetries to sum only over the IBZ_q  =  1
 Using faster algorithm based on time reversal symmetry.
 Memory needed for bbp_ks_distrb: 450.0  [Mb] <<< MEM
 Will sum 2400 (b,b',k,s) states in chi0.
 Calculating chi0(q,omega,G,G")

 ==== Little Group Info ==== 
  External point: [ 3.7500E-01,  0.0000E+00,  0.0000E+00]
  Number of points in the IBZ defined by little group:  120/512
  Number of operations in the little group: 12/48
  No time-reversal symmetry with zero umklapp:  6
  No time-reversal symmetry with non-zero umklapp:  0

  time-reversal symmetry with zero umklapp:  6
  time-reversal symmetry with non-zero umklapp:  0

 Calculation status: 120 k-points to be completed
 ik=    1/ 512 spin=  1 done by mpi rank:  0
 ik=    2/ 512 spin=  1 done by mpi rank:  0
 ik=    3/ 512 spin=  1 done by mpi rank:  0
 ik=    4/ 512 spin=  1 done by mpi rank:  0
 ik=    5/ 512 spin=  1 done by mpi rank:  0
 ik=   10/ 512 spin=  1 done by mpi rank:  0
 ik=   11/ 512 spin=  1 done by mpi rank:  0
 ik=   12/ 512 spin=  1 done by mpi rank:  0
 ik=   13/ 512 spin=  1 done by mpi rank:  0
 ik=   18/ 512 spin=  1 done by mpi rank:  0
 ik=   19/ 512 spin=  1 done by mpi rank:  0
 ik=   20/ 512 spin=  1 done by mpi rank:  0
 ik=   21/ 512 spin=  1 done by mpi rank:  0
 ik=   26/ 512 spin=  1 done by mpi rank:  0
 ik=   27/ 512 spin=  1 done by mpi rank:  0
 ik=   30/ 512 spin=  1 done by mpi rank:  0
 ik=   31/ 512 spin=  1 done by mpi rank:  0
 ik=   36/ 512 spin=  1 done by mpi rank:  0
 ik=   37/ 512 spin=  1 done by mpi rank:  0
 ik=   38/ 512 spin=  1 done by mpi rank:  0
 ik=   39/ 512 spin=  1 done by mpi rank:  0
 ik=   42/ 512 spin=  1 done by mpi rank:  0
 ik=   43/ 512 spin=  1 done by mpi rank:  0
 ik=   60/ 512 spin=  1 done by mpi rank:  0
 ik=   61/ 512 spin=  1 done by mpi rank:  0
 ik=   62/ 512 spin=  1 done by mpi rank:  0
 ik=   63/ 512 spin=  1 done by mpi rank:  0
 ik=   66/ 512 spin=  1 done by mpi rank:  0
 ik=   67/ 512 spin=  1 done by mpi rank:  0
 ik=   84/ 512 spin=  1 done by mpi rank:  0
 ik=   85/ 512 spin=  1 done by mpi rank:  0
 ik=   86/ 512 spin=  1 done by mpi rank:  0
 ik=   87/ 512 spin=  1 done by mpi rank:  0
 ik=   90/ 512 spin=  1 done by mpi rank:  0
 ik=   91/ 512 spin=  1 done by mpi rank:  0
 ik=  108/ 512 spin=  1 done by mpi rank:  0
 ik=  109/ 512 spin=  1 done by mpi rank:  0
 ik=  110/ 512 spin=  1 done by mpi rank:  0
 ik=  111/ 512 spin=  1 done by mpi rank:  0
 ik=  114/ 512 spin=  1 done by mpi rank:  0
 ik=  115/ 512 spin=  1 done by mpi rank:  0
 ik=  132/ 512 spin=  1 done by mpi rank:  0
 ik=  133/ 512 spin=  1 done by mpi rank:  0
 ik=  134/ 512 spin=  1 done by mpi rank:  0
 ik=  135/ 512 spin=  1 done by mpi rank:  0
 ik=  138/ 512 spin=  1 done by mpi rank:  0
 ik=  139/ 512 spin=  1 done by mpi rank:  0
 ik=  156/ 512 spin=  1 done by mpi rank:  0
 ik=  157/ 512 spin=  1 done by mpi rank:  0
 ik=  158/ 512 spin=  1 done by mpi rank:  0
 ik=  168/ 512 spin=  1 done by mpi rank:  0
 ik=  169/ 512 spin=  1 done by mpi rank:  0
 ik=  174/ 512 spin=  1 done by mpi rank:  0
 ik=  175/ 512 spin=  1 done by mpi rank:  0
 ik=  176/ 512 spin=  1 done by mpi rank:  0
 ik=  177/ 512 spin=  1 done by mpi rank:  0
 ik=  180/ 512 spin=  1 done by mpi rank:  0
 ik=  181/ 512 spin=  1 done by mpi rank:  0
 ik=  198/ 512 spin=  1 done by mpi rank:  0
 ik=  199/ 512 spin=  1 done by mpi rank:  0
 ik=  200/ 512 spin=  1 done by mpi rank:  0
 ik=  201/ 512 spin=  1 done by mpi rank:  0
 ik=  204/ 512 spin=  1 done by mpi rank:  0
 ik=  205/ 512 spin=  1 done by mpi rank:  0
 ik=  222/ 512 spin=  1 done by mpi rank:  0
 ik=  223/ 512 spin=  1 done by mpi rank:  0
 ik=  224/ 512 spin=  1 done by mpi rank:  0
 ik=  225/ 512 spin=  1 done by mpi rank:  0
 ik=  228/ 512 spin=  1 done by mpi rank:  0
 ik=  229/ 512 spin=  1 done by mpi rank:  0
 ik=  246/ 512 spin=  1 done by mpi rank:  0
 ik=  247/ 512 spin=  1 done by mpi rank:  0
 ik=  248/ 512 spin=  1 done by mpi rank:  0
 ik=  258/ 512 spin=  1 done by mpi rank:  0
 ik=  259/ 512 spin=  1 done by mpi rank:  0
 ik=  264/ 512 spin=  1 done by mpi rank:  0
 ik=  265/ 512 spin=  1 done by mpi rank:  0
 ik=  266/ 512 spin=  1 done by mpi rank:  0
 ik=  267/ 512 spin=  1 done by mpi rank:  0
 ik=  270/ 512 spin=  1 done by mpi rank:  0
 ik=  271/ 512 spin=  1 done by mpi rank:  0
 ik=  288/ 512 spin=  1 done by mpi rank:  0
 ik=  289/ 512 spin=  1 done by mpi rank:  0
 ik=  290/ 512 spin=  1 done by mpi rank:  0
 ik=  300/ 512 spin=  1 done by mpi rank:  0
 ik=  303/ 512 spin=  1 done by mpi rank:  0
 ik=  304/ 512 spin=  1 done by mpi rank:  0
 ik=  305/ 512 spin=  1 done by mpi rank:  0
 ik=  306/ 512 spin=  1 done by mpi rank:  0
 ik=  327/ 512 spin=  1 done by mpi rank:  0
 ik=  328/ 512 spin=  1 done by mpi rank:  0
 ik=  329/ 512 spin=  1 done by mpi rank:  0
 ik=  330/ 512 spin=  1 done by mpi rank:  0
 ik=  331/ 512 spin=  1 done by mpi rank:  0
 ik=  332/ 512 spin=  1 done by mpi rank:  0
 ik=  333/ 512 spin=  1 done by mpi rank:  0
 ik=  334/ 512 spin=  1 done by mpi rank:  0
 ik=  375/ 512 spin=  1 done by mpi rank:  0
 ik=  377/ 512 spin=  1 done by mpi rank:  0
 ik=  379/ 512 spin=  1 done by mpi rank:  0
 ik=  380/ 512 spin=  1 done by mpi rank:  0
 ik=  399/ 512 spin=  1 done by mpi rank:  0
 ik=  400/ 512 spin=  1 done by mpi rank:  0
 ik=  401/ 512 spin=  1 done by mpi rank:  0
 ik=  402/ 512 spin=  1 done by mpi rank:  0
 ik=  423/ 512 spin=  1 done by mpi rank:  0
 ik=  424/ 512 spin=  1 done by mpi rank:  0
 ik=  425/ 512 spin=  1 done by mpi rank:  0
 ik=  426/ 512 spin=  1 done by mpi rank:  0
 ik=  427/ 512 spin=  1 done by mpi rank:  0
 ik=  428/ 512 spin=  1 done by mpi rank:  0
 ik=  429/ 512 spin=  1 done by mpi rank:  0
 ik=  430/ 512 spin=  1 done by mpi rank:  0
 ik=  471/ 512 spin=  1 done by mpi rank:  0
 ik=  472/ 512 spin=  1 done by mpi rank:  0
 ik=  473/ 512 spin=  1 done by mpi rank:  0
 ik=  474/ 512 spin=  1 done by mpi rank:  0
 ik=  495/ 512 spin=  1 done by mpi rank:  0
 ik=  496/ 512 spin=  1 done by mpi rank:  0
 ik=  507/ 512 spin=  1 done by mpi rank:  0
 cpu_time =       0.9, wall_time =       0.9
  chi0(G,G') at the    1 th omega   0.0000   0.0000 [eV]
  chi0(q =  4, omega =   1, G,G')
       1       2       3       4       5       6       7       8       9
    1  -2.042   1.075  -0.873   0.568   1.025   0.568   1.025   0.568   1.025
        0.000  -0.000   0.000  -0.000  -0.000  -0.000  -0.000  -0.000  -0.000

    2   1.075  -5.558  -0.311  -1.435  -2.512  -1.435  -2.512  -1.435  -2.512
        0.000   0.000   0.000   0.000   0.000   0.000   0.000   0.000   0.000

    3  -0.873  -0.311  -3.892  -0.954  -0.532  -0.954  -0.532  -0.954  -0.532
       -0.000  -0.000   0.000   0.000   0.000   0.000   0.000   0.000   0.000

    4   0.568  -1.435  -0.954  -5.335  -0.786  -0.893  -2.182  -0.893  -2.182
        0.000  -0.000  -0.000   0.000   0.000   0.000  -0.000  -0.000   0.000

    5   1.025  -2.512  -0.532  -0.786  -5.621  -2.182  -1.582  -2.182  -1.582
        0.000  -0.000  -0.000  -0.000   0.000   0.000  -0.000  -0.000   0.000

    6   0.568  -1.435  -0.954  -0.893  -2.182  -5.335  -0.786  -0.893  -2.182
        0.000  -0.000  -0.000  -0.000  -0.000   0.000  -0.000  -0.000  -0.000

    7   1.025  -2.512  -0.532  -2.182  -1.582  -0.786  -5.621  -2.182  -1.582
        0.000  -0.000  -0.000   0.000   0.000   0.000   0.000   0.000   0.000

    8   0.568  -1.435  -0.954  -0.893  -2.182  -0.893  -2.182  -5.335  -0.786
        0.000  -0.000  -0.000   0.000   0.000   0.000  -0.000   0.000   0.000

    9   1.025  -2.512  -0.532  -2.182  -1.582  -2.182  -1.582  -0.786  -5.621
        0.000  -0.000  -0.000  -0.000  -0.000   0.000  -0.000  -0.000   0.000

  chi0(G,G') at the    2 th omega   0.0000  29.2463 [eV]
  chi0(q =  4, omega =   2, G,G')
       1       2       3       4       5       6       7       8       9
    1  -0.749   0.548  -0.401   0.112   0.397   0.112   0.397   0.112   0.397
        0.000  -0.000   0.000  -0.000  -0.000  -0.000  -0.000  -0.000  -0.000

    2   0.548  -3.656   0.196  -0.469  -1.369  -0.469  -1.369  -0.469  -1.369
        0.000   0.000   0.000   0.000   0.000   0.000   0.000   0.000   0.000

    3  -0.401   0.196  -1.725  -0.203   0.108  -0.203   0.108  -0.203   0.108
       -0.000  -0.000   0.000   0.000   0.000   0.000   0.000   0.000   0.000

    4   0.112  -0.469  -0.203  -2.853   0.056   0.010  -0.969   0.010  -0.969
        0.000  -0.000  -0.000   0.000   0.000  -0.000  -0.000  -0.000   0.000

    5   0.397  -1.369   0.108   0.056  -3.402  -0.969  -0.524  -0.969  -0.524
        0.000  -0.000  -0.000  -0.000   0.000   0.000  -0.000  -0.000   0.000

    6   0.112  -0.469  -0.203   0.010  -0.969  -2.853   0.056   0.010  -0.969
        0.000  -0.000  -0.000   0.000  -0.000   0.000   0.000  -0.000  -0.000

    7   0.397  -1.369   0.108  -0.969  -0.524   0.056  -3.402  -0.969  -0.524
        0.000  -0.000  -0.000   0.000   0.000  -0.000   0.000   0.000   0.000

    8   0.112  -0.469  -0.203   0.010  -0.969   0.010  -0.969  -2.853   0.056
        0.000  -0.000  -0.000   0.000   0.000   0.000  -0.000   0.000   0.000

    9   0.397  -1.369   0.108  -0.969  -0.524  -0.969  -0.524   0.056  -3.402
        0.000  -0.000  -0.000  -0.000  -0.000   0.000  -0.000  -0.000   0.000

  Average fulfillment of the sum rule on Im[epsilon] for q-point    4 :    104.58  [%]


--------------------------------------------------------------------------------
  q-point number  5        q = ( 0.500000, 0.000000, 0.000000) [r.l.u.]
--------------------------------------------------------------------------------
 Using spectral method for the imaginary part =  0
 Using symmetries to sum only over the IBZ_q  =  1
 Using faster algorithm based on time reversal symmetry.
 Memory needed for bbp_ks_distrb: 450.0  [Mb] <<< MEM
 Will sum 2400 (b,b',k,s) states in chi0.
 Calculating chi0(q,omega,G,G")

 ==== Little Group Info ==== 
  External point: [ 5.0000E-01,  0.0000E+00,  0.0000E+00]
  Number of points in the IBZ defined by little group:  120/512
  Number of operations in the little group: 12/48
  No time-reversal symmetry with zero umklapp:  6
  No time-reversal symmetry with non-zero umklapp:  0

  time-reversal symmetry with zero umklapp:  6
  time-reversal symmetry with non-zero umklapp:  0

 Calculation status: 120 k-points to be completed
 ik=    1/ 512 spin=  1 done by mpi rank:  0
 ik=    2/ 512 spin=  1 done by mpi rank:  0
 ik=    3/ 512 spin=  1 done by mpi rank:  0
 ik=    4/ 512 spin=  1 done by mpi rank:  0
 ik=    5/ 512 spin=  1 done by mpi rank:  0
 ik=   10/ 512 spin=  1 done by mpi rank:  0
 ik=   11/ 512 spin=  1 done by mpi rank:  0
 ik=   12/ 512 spin=  1 done by mpi rank:  0
 ik=   13/ 512 spin=  1 done by mpi rank:  0
 ik=   18/ 512 spin=  1 done by mpi rank:  0
 ik=   19/ 512 spin=  1 done by mpi rank:  0
 ik=   20/ 512 spin=  1 done by mpi rank:  0
 ik=   21/ 512 spin=  1 done by mpi rank:  0
 ik=   26/ 512 spin=  1 done by mpi rank:  0
 ik=   27/ 512 spin=  1 done by mpi rank:  0
 ik=   30/ 512 spin=  1 done by mpi rank:  0
 ik=   31/ 512 spin=  1 done by mpi rank:  0
 ik=   36/ 512 spin=  1 done by mpi rank:  0
 ik=   37/ 512 spin=  1 done by mpi rank:  0
 ik=   38/ 512 spin=  1 done by mpi rank:  0
 ik=   39/ 512 spin=  1 done by mpi rank:  0
 ik=   42/ 512 spin=  1 done by mpi rank:  0
 ik=   43/ 512 spin=  1 done by mpi rank:  0
 ik=   60/ 512 spin=  1 done by mpi rank:  0
 ik=   61/ 512 spin=  1 done by mpi rank:  0
 ik=   62/ 512 spin=  1 done by mpi rank:  0
 ik=   63/ 512 spin=  1 done by mpi rank:  0
 ik=   66/ 512 spin=  1 done by mpi rank:  0
 ik=   67/ 512 spin=  1 done by mpi rank:  0
 ik=   84/ 512 spin=  1 done by mpi rank:  0
 ik=   85/ 512 spin=  1 done by mpi rank:  0
 ik=   86/ 512 spin=  1 done by mpi rank:  0
 ik=   87/ 512 spin=  1 done by mpi rank:  0
 ik=   90/ 512 spin=  1 done by mpi rank:  0
 ik=   91/ 512 spin=  1 done by mpi rank:  0
 ik=  108/ 512 spin=  1 done by mpi rank:  0
 ik=  109/ 512 spin=  1 done by mpi rank:  0
 ik=  110/ 512 spin=  1 done by mpi rank:  0
 ik=  111/ 512 spin=  1 done by mpi rank:  0
 ik=  114/ 512 spin=  1 done by mpi rank:  0
 ik=  115/ 512 spin=  1 done by mpi rank:  0
 ik=  132/ 512 spin=  1 done by mpi rank:  0
 ik=  133/ 512 spin=  1 done by mpi rank:  0
 ik=  134/ 512 spin=  1 done by mpi rank:  0
 ik=  135/ 512 spin=  1 done by mpi rank:  0
 ik=  138/ 512 spin=  1 done by mpi rank:  0
 ik=  139/ 512 spin=  1 done by mpi rank:  0
 ik=  156/ 512 spin=  1 done by mpi rank:  0
 ik=  157/ 512 spin=  1 done by mpi rank:  0
 ik=  158/ 512 spin=  1 done by mpi rank:  0
 ik=  168/ 512 spin=  1 done by mpi rank:  0
 ik=  169/ 512 spin=  1 done by mpi rank:  0
 ik=  174/ 512 spin=  1 done by mpi rank:  0
 ik=  175/ 512 spin=  1 done by mpi rank:  0
 ik=  176/ 512 spin=  1 done by mpi rank:  0
 ik=  177/ 512 spin=  1 done by mpi rank:  0
 ik=  180/ 512 spin=  1 done by mpi rank:  0
 ik=  181/ 512 spin=  1 done by mpi rank:  0
 ik=  198/ 512 spin=  1 done by mpi rank:  0
 ik=  199/ 512 spin=  1 done by mpi rank:  0
 ik=  200/ 512 spin=  1 done by mpi rank:  0
 ik=  201/ 512 spin=  1 done by mpi rank:  0
 ik=  204/ 512 spin=  1 done by mpi rank:  0
 ik=  205/ 512 spin=  1 done by mpi rank:  0
 ik=  222/ 512 spin=  1 done by mpi rank:  0
 ik=  223/ 512 spin=  1 done by mpi rank:  0
 ik=  224/ 512 spin=  1 done by mpi rank:  0
 ik=  225/ 512 spin=  1 done by mpi rank:  0
 ik=  228/ 512 spin=  1 done by mpi rank:  0
 ik=  229/ 512 spin=  1 done by mpi rank:  0
 ik=  246/ 512 spin=  1 done by mpi rank:  0
 ik=  247/ 512 spin=  1 done by mpi rank:  0
 ik=  248/ 512 spin=  1 done by mpi rank:  0
 ik=  258/ 512 spin=  1 done by mpi rank:  0
 ik=  259/ 512 spin=  1 done by mpi rank:  0
 ik=  264/ 512 spin=  1 done by mpi rank:  0
 ik=  265/ 512 spin=  1 done by mpi rank:  0
 ik=  266/ 512 spin=  1 done by mpi rank:  0
 ik=  267/ 512 spin=  1 done by mpi rank:  0
 ik=  270/ 512 spin=  1 done by mpi rank:  0
 ik=  271/ 512 spin=  1 done by mpi rank:  0
 ik=  288/ 512 spin=  1 done by mpi rank:  0
 ik=  289/ 512 spin=  1 done by mpi rank:  0
 ik=  290/ 512 spin=  1 done by mpi rank:  0
 ik=  300/ 512 spin=  1 done by mpi rank:  0
 ik=  303/ 512 spin=  1 done by mpi rank:  0
 ik=  304/ 512 spin=  1 done by mpi rank:  0
[...]
 Sigma_c: ik_bz 229/512, spin: 1 done by mpi-rank: 0
 Sigma_c: ik_bz 239/512, spin: 1 done by mpi-rank: 0
 Sigma_c: ik_bz 246/512, spin: 1 done by mpi-rank: 0
 Sigma_c: ik_bz 252/512, spin: 1 done by mpi-rank: 0
 Sigma_c: ik_bz 258/512, spin: 1 done by mpi-rank: 0
 Sigma_c: ik_bz 263/512, spin: 1 done by mpi-rank: 0
 Sigma_c: ik_bz 270/512, spin: 1 done by mpi-rank: 0
 Sigma_c: ik_bz 281/512, spin: 1 done by mpi-rank: 0
 Sigma_c: ik_bz 288/512, spin: 1 done by mpi-rank: 0
 Sigma_c: ik_bz 297/512, spin: 1 done by mpi-rank: 0
 Sigma_c: ik_bz 300/512, spin: 1 done by mpi-rank: 0
 Sigma_c: ik_bz 302/512, spin: 1 done by mpi-rank: 0
 Sigma_c: ik_bz 306/512, spin: 1 done by mpi-rank: 0
 Sigma_c: ik_bz 312/512, spin: 1 done by mpi-rank: 0
 Sigma_c: ik_bz 322/512, spin: 1 done by mpi-rank: 0
 Sigma_c: ik_bz 344/512, spin: 1 done by mpi-rank: 0
 Sigma_c: ik_bz 356/512, spin: 1 done by mpi-rank: 0
 Sigma_c: ik_bz 368/512, spin: 1 done by mpi-rank: 0
 Sigma_c: ik_bz 377/512, spin: 1 done by mpi-rank: 0
 Sigma_c: ik_bz 385/512, spin: 1 done by mpi-rank: 0
 Sigma_c: ik_bz 408/512, spin: 1 done by mpi-rank: 0
 Sigma_c: ik_bz 411/512, spin: 1 done by mpi-rank: 0
 Sigma_c: ik_bz 420/512, spin: 1 done by mpi-rank: 0
 Sigma_c: ik_bz 425/512, spin: 1 done by mpi-rank: 0
 Sigma_c: ik_bz 440/512, spin: 1 done by mpi-rank: 0
 Sigma_c: ik_bz 464/512, spin: 1 done by mpi-rank: 0
 Sigma_c: ik_bz 473/512, spin: 1 done by mpi-rank: 0
 Sigma_c: ik_bz 477/512, spin: 1 done by mpi-rank: 0
 Sigma_c: ik_bz 492/512, spin: 1 done by mpi-rank: 0
 Sigma_c: ik_bz 495/512, spin: 1 done by mpi-rank: 0
 Sigma_c: ik_bz 500/512, spin: 1 done by mpi-rank: 0
 Sigma_c: ik_bz 506/512, spin: 1 done by mpi-rank: 0
 Sigma_c: ik_bz 507/512, spin: 1 done by mpi-rank: 0
 Sigma_c: ik_bz 509/512, spin: 1 done by mpi-rank: 0
 cpu_time =       3.8, wall_time =       3.9

 k =    0.000   0.000   0.000
 Band     E0 <VxcDFT>   SigX SigC(E0)      Z dSigC/dE  Sig(E)    E-E0       E
    1 -41.705 -25.583 -39.720   4.102   0.903  -0.107 -34.649  -9.066 -50.771
    1   0.000   0.000   0.000   0.067   0.000   0.000   0.060   0.060   0.060
    2 -20.819 -22.783 -37.676   9.091   0.779  -0.284 -27.301  -4.518 -25.337
    2   0.000   0.000   0.000  -0.100   0.000   0.000  -0.078  -0.078  -0.078
    3  -0.891 -23.080 -30.773   4.182   0.827  -0.210 -25.982  -2.902  -3.793
    3   0.000   0.000   0.000   0.000   0.000   0.000   0.000   0.000   0.000
    4  -0.891 -23.080 -30.773   4.182   0.827  -0.210 -25.982  -2.902  -3.793
    4   0.000   0.000   0.000   0.000   0.000   0.000   0.000   0.000   0.000
    5  -0.891 -23.080 -30.773   4.182   0.827  -0.210 -25.982  -2.902  -3.793
    5   0.000   0.000   0.000   0.000   0.000   0.000   0.000   0.000   0.000
    6   8.344 -11.551  -6.672  -3.171   0.891  -0.123 -10.030   1.521   9.865
    6   0.000   0.000   0.000  -0.000   0.000   0.000  -0.000  -0.000  -0.000
    7  23.277 -10.072  -3.106  -4.231   0.881  -0.135  -7.664   2.408  25.686
    7   0.000   0.000   0.000   0.000   0.000   0.000   0.000   0.000   0.000
    8  23.277 -10.072  -3.106  -4.231   0.881  -0.135  -7.664   2.408  25.686
    8   0.000   0.000   0.000   0.000   0.000   0.000   0.000   0.000   0.000
    9  23.277 -10.072  -3.106  -4.231   0.881  -0.135  -7.664   2.408  25.686
    9   0.000   0.000   0.000   0.000   0.000   0.000   0.000   0.000   0.000

 E^0_gap          9.236
 E^GW_gap        13.658
 DeltaE^GW_gap    4.423


 k =    0.500   0.500   0.000
 Band     E0 <VxcDFT>   SigX SigC(E0)      Z dSigC/dE  Sig(E)    E-E0       E
    1 -41.628 -25.705 -39.816   4.087   0.901  -0.109 -34.741  -9.036 -50.664
    1   0.000   0.000   0.000   0.023   0.000   0.000   0.021   0.021   0.021
    2 -20.103 -23.620 -38.486   8.988   0.748  -0.336 -28.019  -4.400 -24.503
    2   0.000   0.000   0.000  -0.283   0.000   0.000  -0.212  -0.212  -0.212
    3  -3.931 -18.557 -26.747   4.027   0.831  -0.204 -22.015  -3.458  -7.389
    3   0.000   0.000   0.000   0.010   0.000   0.000   0.008   0.008   0.008
    4  -1.901 -21.597 -29.530   4.164   0.826  -0.210 -24.712  -3.115  -5.015
    4   0.000   0.000   0.000   0.000   0.000   0.000   0.000   0.000   0.000
    5  -1.901 -21.597 -29.530   4.164   0.826  -0.210 -24.712  -3.115  -5.015
    5   0.000   0.000   0.000   0.000   0.000   0.000   0.000   0.000   0.000
    6  14.056 -14.807  -8.537  -3.479   0.869  -0.151 -12.382   2.425  16.481
    6   0.000   0.000   0.000   0.001   0.000   0.000   0.001   0.001   0.001
    7  15.719  -7.626  -2.660  -3.491   0.900  -0.111  -6.299   1.327  17.046
    7   0.000   0.000   0.000   0.000   0.000   0.000   0.000   0.000   0.000
    8  16.761 -10.676  -4.831  -3.716   0.891  -0.122  -8.779   1.897  18.658
    8   0.000   0.000   0.000   0.000   0.000   0.000   0.000   0.000   0.000

 E^0_gap         15.957
 E^GW_gap        21.497
 DeltaE^GW_gap    5.540

- Creating netcdf file WITHOUT MPI-IO support: outdata_ac_DS2_SIGRES.nc
 dataset: 2 , wall:  8.38 [s] , cpu:  8.17 [s] <<< TIME

== END DATASET(S) ==============================================================
================================================================================
  
 -outvars: echo values of variables after computation  --------
 
 These variables are accessible in NetCDF format (outdata_ac_OUT.nc)

            acell      7.5778017929E+00  7.5778017929E+00  7.5778017929E+00 Bohr
              amu      6.94100000E+00  1.89984032E+01
             bdgw           1       8       1       8
           diemac      1.20000000E+01
             ecut      4.00000000E+01 Hartree
          ecuteps      1.20000000E+01 Hartree
         ecutsigx      4.00000000E+01 Hartree
          ecutwfn      4.00000000E+01 Hartree
           etotal1     0.0000000000E+00
           etotal2     0.0000000000E+00
            fcart1     0.0000000000E+00  0.0000000000E+00  0.0000000000E+00
                       0.0000000000E+00  0.0000000000E+00  0.0000000000E+00
            fcart2     0.0000000000E+00  0.0000000000E+00  0.0000000000E+00
                       0.0000000000E+00  0.0000000000E+00  0.0000000000E+00
-          fftalg         312
           getscr1          0
           getscr2         -1
           istwfk        1    0    0    0    1    0    0    0    0    0
                         0    0    0    0    0    0    0    0    0    0
                         1    0    0    0    0    0    0    0    0
              ixc          11
           jdtset        1    2
              kpt      0.00000000E+00  0.00000000E+00  0.00000000E+00
                       1.25000000E-01  0.00000000E+00  0.00000000E+00
                       2.50000000E-01  0.00000000E+00  0.00000000E+00
                       3.75000000E-01  0.00000000E+00  0.00000000E+00
                       5.00000000E-01  0.00000000E+00  0.00000000E+00
                       1.25000000E-01  1.25000000E-01  0.00000000E+00
                       2.50000000E-01  1.25000000E-01  0.00000000E+00
                       3.75000000E-01  1.25000000E-01  0.00000000E+00
                       5.00000000E-01  1.25000000E-01  0.00000000E+00
                      -3.75000000E-01  1.25000000E-01  0.00000000E+00
                      -2.50000000E-01  1.25000000E-01  0.00000000E+00
                      -1.25000000E-01  1.25000000E-01  0.00000000E+00
                       2.50000000E-01  2.50000000E-01  0.00000000E+00
                       3.75000000E-01  2.50000000E-01  0.00000000E+00
                       5.00000000E-01  2.50000000E-01  0.00000000E+00
                      -3.75000000E-01  2.50000000E-01  0.00000000E+00
                      -2.50000000E-01  2.50000000E-01  0.00000000E+00
                       3.75000000E-01  3.75000000E-01  0.00000000E+00
                       5.00000000E-01  3.75000000E-01  0.00000000E+00
                      -3.75000000E-01  3.75000000E-01  0.00000000E+00
                       5.00000000E-01  5.00000000E-01  0.00000000E+00
                       3.75000000E-01  2.50000000E-01  1.25000000E-01
                       5.00000000E-01  2.50000000E-01  1.25000000E-01
                      -3.75000000E-01  2.50000000E-01  1.25000000E-01
                       5.00000000E-01  3.75000000E-01  1.25000000E-01
                      -3.75000000E-01  3.75000000E-01  1.25000000E-01
                      -2.50000000E-01  3.75000000E-01  1.25000000E-01
                      -3.75000000E-01  5.00000000E-01  1.25000000E-01
                      -2.50000000E-01  5.00000000E-01  2.50000000E-01
            kptgw      0.00000000E+00  0.00000000E+00  0.00000000E+00
                       5.00000000E-01  5.00000000E-01  0.00000000E+00
         kptrlatt        8    0    0      0    8    0      0    0    8
          kptrlen      4.28665203E+01
P           mkmem           1
            natom           2
            nband         480
           ndtset           2
            ngfft          32      32      32
             nkpt          29
           nkptgw           2
           npweps         181
          npwsigx        1363
           npwwfn        1363
            nstep          50
             nsym          48
           ntypat           2
              occ      2.000000  2.000000  2.000000  2.000000  2.000000  0.000000
                       0.000000  0.000000  0.000000  0.000000  0.000000  0.000000
                       0.000000  0.000000  0.000000  0.000000  0.000000  0.000000
                       0.000000  0.000000  0.000000  0.000000  0.000000  0.000000
                       0.000000  0.000000  0.000000  0.000000  0.000000  0.000000
                       0.000000  0.000000  0.000000  0.000000  0.000000  0.000000
                       0.000000  0.000000  0.000000  0.000000  0.000000  0.000000
                       0.000000  0.000000  0.000000  0.000000  0.000000  0.000000
                       0.000000  0.000000  0.000000  0.000000  0.000000  0.000000
                       0.000000  0.000000  0.000000  0.000000  0.000000  0.000000
                       0.000000  0.000000  0.000000  0.000000  0.000000  0.000000
                       0.000000  0.000000  0.000000  0.000000  0.000000  0.000000
                       0.000000  0.000000  0.000000  0.000000  0.000000  0.000000
                       0.000000  0.000000  0.000000  0.000000  0.000000  0.000000
                       0.000000  0.000000  0.000000  0.000000  0.000000  0.000000
                       0.000000  0.000000  0.000000  0.000000  0.000000  0.000000
                       0.000000  0.000000  0.000000  0.000000  0.000000  0.000000
                       0.000000  0.000000  0.000000  0.000000  0.000000  0.000000
                       0.000000  0.000000  0.000000  0.000000  0.000000  0.000000
                       0.000000  0.000000  0.000000  0.000000  0.000000  0.000000
                       0.000000  0.000000  0.000000  0.000000  0.000000  0.000000
                       0.000000  0.000000  0.000000  0.000000  0.000000  0.000000
                       0.000000  0.000000  0.000000  0.000000  0.000000  0.000000
                       0.000000  0.000000  0.000000  0.000000  0.000000  0.000000
                       0.000000  0.000000  0.000000  0.000000  0.000000  0.000000
                       0.000000  0.000000  0.000000  0.000000  0.000000  0.000000
                       0.000000  0.000000  0.000000  0.000000  0.000000  0.000000
                       0.000000  0.000000  0.000000  0.000000  0.000000  0.000000
                       0.000000  0.000000  0.000000  0.000000  0.000000  0.000000
                       0.000000  0.000000  0.000000  0.000000  0.000000  0.000000
                       0.000000  0.000000  0.000000  0.000000  0.000000  0.000000
                       0.000000  0.000000  0.000000  0.000000  0.000000  0.000000
                       0.000000  0.000000  0.000000  0.000000  0.000000  0.000000
                       0.000000  0.000000  0.000000  0.000000  0.000000  0.000000
                       0.000000  0.000000  0.000000  0.000000  0.000000  0.000000
                       0.000000  0.000000  0.000000  0.000000  0.000000  0.000000
                       0.000000  0.000000  0.000000  0.000000  0.000000  0.000000
                       0.000000  0.000000  0.000000  0.000000  0.000000  0.000000
                       0.000000  0.000000  0.000000  0.000000  0.000000  0.000000
                       0.000000  0.000000  0.000000  0.000000  0.000000  0.000000
                       0.000000  0.000000  0.000000  0.000000  0.000000  0.000000
                       0.000000  0.000000  0.000000  0.000000  0.000000  0.000000
                       0.000000  0.000000  0.000000  0.000000  0.000000  0.000000
                       0.000000  0.000000  0.000000  0.000000  0.000000  0.000000
                       0.000000  0.000000  0.000000  0.000000  0.000000  0.000000
                       0.000000  0.000000  0.000000  0.000000  0.000000  0.000000
                       0.000000  0.000000  0.000000  0.000000  0.000000  0.000000
                       0.000000  0.000000  0.000000  0.000000  0.000000  0.000000
                       0.000000  0.000000  0.000000  0.000000  0.000000  0.000000
                       0.000000  0.000000  0.000000  0.000000  0.000000  0.000000
                       0.000000  0.000000  0.000000  0.000000  0.000000  0.000000
                       0.000000  0.000000  0.000000  0.000000  0.000000  0.000000
                       0.000000  0.000000  0.000000  0.000000  0.000000  0.000000
                       0.000000  0.000000  0.000000  0.000000  0.000000  0.000000
                       0.000000  0.000000  0.000000  0.000000  0.000000  0.000000
                       0.000000  0.000000  0.000000  0.000000  0.000000  0.000000
                       0.000000  0.000000  0.000000  0.000000  0.000000  0.000000
                       0.000000  0.000000  0.000000  0.000000  0.000000  0.000000
                       0.000000  0.000000  0.000000  0.000000  0.000000  0.000000
                       0.000000  0.000000  0.000000  0.000000  0.000000  0.000000
                       0.000000  0.000000  0.000000  0.000000  0.000000  0.000000
                       0.000000  0.000000  0.000000  0.000000  0.000000  0.000000
                       0.000000  0.000000  0.000000  0.000000  0.000000  0.000000
                       0.000000  0.000000  0.000000  0.000000  0.000000  0.000000
                       0.000000  0.000000  0.000000  0.000000  0.000000  0.000000
                       0.000000  0.000000  0.000000  0.000000  0.000000  0.000000
                       0.000000  0.000000  0.000000  0.000000  0.000000  0.000000
                       0.000000  0.000000  0.000000  0.000000  0.000000  0.000000
                       0.000000  0.000000  0.000000  0.000000  0.000000  0.000000
                       0.000000  0.000000  0.000000  0.000000  0.000000  0.000000
                       0.000000  0.000000  0.000000  0.000000  0.000000  0.000000
                       0.000000  0.000000  0.000000  0.000000  0.000000  0.000000
                       0.000000  0.000000  0.000000  0.000000  0.000000  0.000000
                       0.000000  0.000000  0.000000  0.000000  0.000000  0.000000
                       0.000000  0.000000  0.000000  0.000000  0.000000  0.000000
                       0.000000  0.000000  0.000000  0.000000  0.000000  0.000000
                       0.000000  0.000000  0.000000  0.000000  0.000000  0.000000
                       0.000000  0.000000  0.000000  0.000000  0.000000  0.000000
                       0.000000  0.000000  0.000000  0.000000  0.000000  0.000000
                       0.000000  0.000000  0.000000  0.000000  0.000000  0.000000
        optdriver1          3
        optdriver2          4
            rprim      0.0000000000E+00  5.0000000000E-01  5.0000000000E-01
                       5.0000000000E-01  0.0000000000E+00  5.0000000000E-01
                       5.0000000000E-01  5.0000000000E-01  0.0000000000E+00
          spgroup         225
           strten1     0.0000000000E+00  0.0000000000E+00  0.0000000000E+00
                       0.0000000000E+00  0.0000000000E+00  0.0000000000E+00
           strten2     0.0000000000E+00  0.0000000000E+00  0.0000000000E+00
                       0.0000000000E+00  0.0000000000E+00  0.0000000000E+00
           symrel      1  0  0   0  1  0   0  0  1      -1  0  0   0 -1  0   0  0 -1
                       0 -1  1   0 -1  0   1 -1  0       0  1 -1   0  1  0  -1  1  0
                      -1  0  0  -1  0  1  -1  1  0       1  0  0   1  0 -1   1 -1  0
                       0  1 -1   1  0 -1   0  0 -1       0 -1  1  -1  0  1   0  0  1
                      -1  0  0  -1  1  0  -1  0  1       1  0  0   1 -1  0   1  0 -1
                       0 -1  1   1 -1  0   0 -1  0       0  1 -1  -1  1  0   0  1  0
                       1  0  0   0  0  1   0  1  0      -1  0  0   0  0 -1   0 -1  0
                       0  1 -1   0  0 -1   1  0 -1       0 -1  1   0  0  1  -1  0  1
                      -1  0  1  -1  1  0  -1  0  0       1  0 -1   1 -1  0   1  0  0
                       0 -1  0   1 -1  0   0 -1  1       0  1  0  -1  1  0   0  1 -1
                       1  0 -1   0  0 -1   0  1 -1      -1  0  1   0  0  1   0 -1  1
                       0  1  0   0  0  1   1  0  0       0 -1  0   0  0 -1  -1  0  0
                       1  0 -1   0  1 -1   0  0 -1      -1  0  1   0 -1  1   0  0  1
                       0 -1  0   0 -1  1   1 -1  0       0  1  0   0  1 -1  -1  1  0
                      -1  0  1  -1  0  0  -1  1  0       1  0 -1   1  0  0   1 -1  0
                       0  1  0   1  0  0   0  0  1       0 -1  0  -1  0  0   0  0 -1
                       0  0 -1   0  1 -1   1  0 -1       0  0  1   0 -1  1  -1  0  1
                       1 -1  0   0 -1  1   0 -1  0      -1  1  0   0  1 -1   0  1  0
                       0  0  1   1  0  0   0  1  0       0  0 -1  -1  0  0   0 -1  0
                      -1  1  0  -1  0  0  -1  0  1       1 -1  0   1  0  0   1  0 -1
                       0  0  1   0  1  0   1  0  0       0  0 -1   0 -1  0  -1  0  0
                       1 -1  0   0 -1  0   0 -1  1      -1  1  0   0  1  0   0  1 -1
                       0  0 -1   1  0 -1   0  1 -1       0  0  1  -1  0  1   0 -1  1
                      -1  1  0  -1  0  1  -1  0  0       1 -1  0   1  0 -1   1  0  0
           timopt          -1
            typat      1  2
              wtk        0.00195    0.01563    0.01563    0.01563    0.00781    0.01172
                         0.04688    0.04688    0.04688    0.04688    0.04688    0.02344
                         0.01172    0.04688    0.04688    0.04688    0.02344    0.01172
                         0.04688    0.02344    0.00586    0.04688    0.09375    0.04688
                         0.04688    0.09375    0.04688    0.02344    0.01172
           xangst      0.0000000000E+00  0.0000000000E+00  0.0000000000E+00
                       2.0050000000E+00  2.0050000000E+00  2.0050000000E+00
            xcart      0.0000000000E+00  0.0000000000E+00  0.0000000000E+00
                       3.7889008964E+00  3.7889008964E+00  3.7889008964E+00
             xred      0.0000000000E+00  0.0000000000E+00  0.0000000000E+00
                       5.0000000000E-01  5.0000000000E-01  5.0000000000E-01
            znucl        3.00000    9.00000

================================================================================
  
 Proc.   0 individual time (sec): cpu=         60.1  wall=         60.9

 Calculation completed.
.Delivered   0 WARNINGs and   0 COMMENTs to log file.

--- !FinalSummary
program: abinit
version: 9.9.2
start_datetime: Fri Feb 17 10:09:11 2023
end_datetime: Fri Feb 17 10:10:11 2023
overall_cpu_time:        7768.8
overall_wall_time:        7790.8
exit_requested_by_user: no 
timelimit: 0
pseudos: 
    Li  : b8ea165dce08c65c90ae636c403b28a3
    F   : c3f03d3c8bfaed8014dda45a8fc49c9b
usepaw: 0
mpi_procs: 128
omp_threads: 1
num_warnings: 0
num_comments: 0
...
