
.Version 9.9.2 of ABINIT 
.(MPI version, prepared for a x86_64_linux_gnu11.2 computer) 

.Copyright (C) 1998-2022 ABINIT group . 
 ABINIT comes with ABSOLUTELY NO WARRANTY.
 It is free software, and you are welcome to redistribute it
 under certain conditions (GNU General Public License,
 see ~abinit/COPYING or http://www.gnu.org/copyleft/gpl.txt).

 ABINIT is a project of the Universite Catholique de Louvain,
 Corning Inc. and other collaborators, see ~abinit/doc/developers/contributors.txt .
 Please read https://docs.abinit.org/theory/acknowledgments for suggested
 acknowledgments of the ABINIT effort.
 For more information, see https://www.abinit.org .

.Starting date : Fri 17 Feb 2023.
- ( at 10h09 )
  
- input  file    -> run.abi
- output file    -> run.abo
- root for input  files -> ../indata_ac
- root for output files -> outdata_ac


 DATASET    1 : space group Fm -3 m (#225); Bravais cF (face-center cubic)
================================================================================
 Values of the parameters that define the memory need for DATASET  1.
     intxc =       0    ionmov =       0      iscf =       7    lmnmax =       5
     lnmax =       5     mgfft =      32  mpssoang =       3    mqgrid =    3001
     natom =       2  nloc_mem =       1    nspden =       1   nspinor =       1
    nsppol =       1      nsym =      48    n1xccc =    2501    ntypat =       2
    occopt =       1   xclevel =       2
-    mband =         480        mffmem =           1         mkmem =           1
       mpw =        1363          nfft =       32768          nkpt =          29
================================================================================
P This job should need less than                      28.943 Mbytes of memory.
  Rough estimation (10% accuracy) of disk space for files :
_ WF disk file :    289.506 Mbytes ; DEN or POT disk file :      0.252 Mbytes.
================================================================================


 DATASET    2 : space group Fm -3 m (#225); Bravais cF (face-center cubic)
================================================================================
 Values of the parameters that define the memory need for DATASET  2.
     intxc =       0    ionmov =       0      iscf =       7    lmnmax =       5
     lnmax =       5     mgfft =      32  mpssoang =       3    mqgrid =    3001
     natom =       2  nloc_mem =       1    nspden =       1   nspinor =       1
    nsppol =       1      nsym =      48    n1xccc =    2501    ntypat =       2
    occopt =       1   xclevel =       2
-    mband =         480        mffmem =           1         mkmem =           1
       mpw =        1363          nfft =       32768          nkpt =          29
================================================================================
P This job should need less than                      28.943 Mbytes of memory.
  Rough estimation (10% accuracy) of disk space for files :
_ WF disk file :    289.506 Mbytes ; DEN or POT disk file :      0.252 Mbytes.
================================================================================

--------------------------------------------------------------------------------
------------- Echo of variables that govern the present computation ------------
--------------------------------------------------------------------------------
-
- outvars: echo of selected default values                                      
-   iomode0 =  0 , fftalg0 =312 , wfoptalg0 =  0
-
- outvars: echo of global parameters not present in the input file              
-  max_nthreads =    0
-
 -outvars: echo values of preprocessed input variables --------
            acell      7.5778017929E+00  7.5778017929E+00  7.5778017929E+00 Bohr
              amu      6.94100000E+00  1.89984032E+01
             bdgw           1       8       1       8
           diemac      1.20000000E+01
             ecut      4.00000000E+01 Hartree
          ecuteps      1.20000000E+01 Hartree
         ecutsigx      4.00000000E+01 Hartree
          ecutwfn      4.00000000E+01 Hartree
-          fftalg         312
           getscr1          0
           getscr2         -1
           istwfk        1    0    0    0    1    0    0    0    0    0
                         0    0    0    0    0    0    0    0    0    0
                         1    0    0    0    0    0    0    0    0
              ixc          11
           jdtset        1    2
              kpt      0.00000000E+00  0.00000000E+00  0.00000000E+00
                       1.25000000E-01  0.00000000E+00  0.00000000E+00
                       2.50000000E-01  0.00000000E+00  0.00000000E+00
                       3.75000000E-01  0.00000000E+00  0.00000000E+00
                       5.00000000E-01  0.00000000E+00  0.00000000E+00
                       1.25000000E-01  1.25000000E-01  0.00000000E+00
                       2.50000000E-01  1.25000000E-01  0.00000000E+00
                       3.75000000E-01  1.25000000E-01  0.00000000E+00
                       5.00000000E-01  1.25000000E-01  0.00000000E+00
                      -3.75000000E-01  1.25000000E-01  0.00000000E+00
                      -2.50000000E-01  1.25000000E-01  0.00000000E+00
                      -1.25000000E-01  1.25000000E-01  0.00000000E+00
                       2.50000000E-01  2.50000000E-01  0.00000000E+00
                       3.75000000E-01  2.50000000E-01  0.00000000E+00
                       5.00000000E-01  2.50000000E-01  0.00000000E+00
                      -3.75000000E-01  2.50000000E-01  0.00000000E+00
                      -2.50000000E-01  2.50000000E-01  0.00000000E+00
                       3.75000000E-01  3.75000000E-01  0.00000000E+00
                       5.00000000E-01  3.75000000E-01  0.00000000E+00
                      -3.75000000E-01  3.75000000E-01  0.00000000E+00
                       5.00000000E-01  5.00000000E-01  0.00000000E+00
                       3.75000000E-01  2.50000000E-01  1.25000000E-01
                       5.00000000E-01  2.50000000E-01  1.25000000E-01
                      -3.75000000E-01  2.50000000E-01  1.25000000E-01
                       5.00000000E-01  3.75000000E-01  1.25000000E-01
                      -3.75000000E-01  3.75000000E-01  1.25000000E-01
                      -2.50000000E-01  3.75000000E-01  1.25000000E-01
                      -3.75000000E-01  5.00000000E-01  1.25000000E-01
                      -2.50000000E-01  5.00000000E-01  2.50000000E-01
            kptgw      0.00000000E+00  0.00000000E+00  0.00000000E+00
                       5.00000000E-01  5.00000000E-01  0.00000000E+00
         kptrlatt        8    0    0      0    8    0      0    0    8
          kptrlen      4.28665203E+01
P           mkmem           1
            natom           2
            nband         480
           ndtset           2
            ngfft          32      32      32
             nkpt          29
           nkptgw           2
           npweps         181
          npwsigx        1363
           npwwfn        1363
            nstep          50
             nsym          48
           ntypat           2
              occ      2.000000  2.000000  2.000000  2.000000  2.000000  0.000000
                       0.000000  0.000000  0.000000  0.000000  0.000000  0.000000
                       0.000000  0.000000  0.000000  0.000000  0.000000  0.000000
                       0.000000  0.000000  0.000000  0.000000  0.000000  0.000000
                       0.000000  0.000000  0.000000  0.000000  0.000000  0.000000
                       0.000000  0.000000  0.000000  0.000000  0.000000  0.000000
                       0.000000  0.000000  0.000000  0.000000  0.000000  0.000000
                       0.000000  0.000000  0.000000  0.000000  0.000000  0.000000
                       0.000000  0.000000  0.000000  0.000000  0.000000  0.000000
                       0.000000  0.000000  0.000000  0.000000  0.000000  0.000000
                       0.000000  0.000000  0.000000  0.000000  0.000000  0.000000
                       0.000000  0.000000  0.000000  0.000000  0.000000  0.000000
                       0.000000  0.000000  0.000000  0.000000  0.000000  0.000000
                       0.000000  0.000000  0.000000  0.000000  0.000000  0.000000
                       0.000000  0.000000  0.000000  0.000000  0.000000  0.000000
                       0.000000  0.000000  0.000000  0.000000  0.000000  0.000000
                       0.000000  0.000000  0.000000  0.000000  0.000000  0.000000
                       0.000000  0.000000  0.000000  0.000000  0.000000  0.000000
                       0.000000  0.000000  0.000000  0.000000  0.000000  0.000000
                       0.000000  0.000000  0.000000  0.000000  0.000000  0.000000
                       0.000000  0.000000  0.000000  0.000000  0.000000  0.000000
                       0.000000  0.000000  0.000000  0.000000  0.000000  0.000000
                       0.000000  0.000000  0.000000  0.000000  0.000000  0.000000
                       0.000000  0.000000  0.000000  0.000000  0.000000  0.000000
                       0.000000  0.000000  0.000000  0.000000  0.000000  0.000000
                       0.000000  0.000000  0.000000  0.000000  0.000000  0.000000
                       0.000000  0.000000  0.000000  0.000000  0.000000  0.000000
                       0.000000  0.000000  0.000000  0.000000  0.000000  0.000000
                       0.000000  0.000000  0.000000  0.000000  0.000000  0.000000
                       0.000000  0.000000  0.000000  0.000000  0.000000  0.000000
                       0.000000  0.000000  0.000000  0.000000  0.000000  0.000000
                       0.000000  0.000000  0.000000  0.000000  0.000000  0.000000
                       0.000000  0.000000  0.000000  0.000000  0.000000  0.000000
                       0.000000  0.000000  0.000000  0.000000  0.000000  0.000000
                       0.000000  0.000000  0.000000  0.000000  0.000000  0.000000
                       0.000000  0.000000  0.000000  0.000000  0.000000  0.000000
                       0.000000  0.000000  0.000000  0.000000  0.000000  0.000000
                       0.000000  0.000000  0.000000  0.000000  0.000000  0.000000
                       0.000000  0.000000  0.000000  0.000000  0.000000  0.000000
                       0.000000  0.000000  0.000000  0.000000  0.000000  0.000000
                       0.000000  0.000000  0.000000  0.000000  0.000000  0.000000
                       0.000000  0.000000  0.000000  0.000000  0.000000  0.000000
                       0.000000  0.000000  0.000000  0.000000  0.000000  0.000000
                       0.000000  0.000000  0.000000  0.000000  0.000000  0.000000
                       0.000000  0.000000  0.000000  0.000000  0.000000  0.000000
                       0.000000  0.000000  0.000000  0.000000  0.000000  0.000000
                       0.000000  0.000000  0.000000  0.000000  0.000000  0.000000
                       0.000000  0.000000  0.000000  0.000000  0.000000  0.000000
                       0.000000  0.000000  0.000000  0.000000  0.000000  0.000000
                       0.000000  0.000000  0.000000  0.000000  0.000000  0.000000
                       0.000000  0.000000  0.000000  0.000000  0.000000  0.000000
                       0.000000  0.000000  0.000000  0.000000  0.000000  0.000000
                       0.000000  0.000000  0.000000  0.000000  0.000000  0.000000
                       0.000000  0.000000  0.000000  0.000000  0.000000  0.000000
                       0.000000  0.000000  0.000000  0.000000  0.000000  0.000000
                       0.000000  0.000000  0.000000  0.000000  0.000000  0.000000
                       0.000000  0.000000  0.000000  0.000000  0.000000  0.000000
                       0.000000  0.000000  0.000000  0.000000  0.000000  0.000000
                       0.000000  0.000000  0.000000  0.000000  0.000000  0.000000
                       0.000000  0.000000  0.000000  0.000000  0.000000  0.000000
                       0.000000  0.000000  0.000000  0.000000  0.000000  0.000000
                       0.000000  0.000000  0.000000  0.000000  0.000000  0.000000
                       0.000000  0.000000  0.000000  0.000000  0.000000  0.000000
                       0.000000  0.000000  0.000000  0.000000  0.000000  0.000000
                       0.000000  0.000000  0.000000  0.000000  0.000000  0.000000
                       0.000000  0.000000  0.000000  0.000000  0.000000  0.000000
                       0.000000  0.000000  0.000000  0.000000  0.000000  0.000000
                       0.000000  0.000000  0.000000  0.000000  0.000000  0.000000
                       0.000000  0.000000  0.000000  0.000000  0.000000  0.000000
                       0.000000  0.000000  0.000000  0.000000  0.000000  0.000000
                       0.000000  0.000000  0.000000  0.000000  0.000000  0.000000
                       0.000000  0.000000  0.000000  0.000000  0.000000  0.000000
                       0.000000  0.000000  0.000000  0.000000  0.000000  0.000000
                       0.000000  0.000000  0.000000  0.000000  0.000000  0.000000
                       0.000000  0.000000  0.000000  0.000000  0.000000  0.000000
                       0.000000  0.000000  0.000000  0.000000  0.000000  0.000000
                       0.000000  0.000000  0.000000  0.000000  0.000000  0.000000
                       0.000000  0.000000  0.000000  0.000000  0.000000  0.000000
                       0.000000  0.000000  0.000000  0.000000  0.000000  0.000000
                       0.000000  0.000000  0.000000  0.000000  0.000000  0.000000
        optdriver1          3
        optdriver2          4
            rprim      0.0000000000E+00  5.0000000000E-01  5.0000000000E-01
                       5.0000000000E-01  0.0000000000E+00  5.0000000000E-01
                       5.0000000000E-01  5.0000000000E-01  0.0000000000E+00
          spgroup         225
           symrel      1  0  0   0  1  0   0  0  1      -1  0  0   0 -1  0   0  0 -1
                       0 -1  1   0 -1  0   1 -1  0       0  1 -1   0  1  0  -1  1  0
                      -1  0  0  -1  0  1  -1  1  0       1  0  0   1  0 -1   1 -1  0
                       0  1 -1   1  0 -1   0  0 -1       0 -1  1  -1  0  1   0  0  1
                      -1  0  0  -1  1  0  -1  0  1       1  0  0   1 -1  0   1  0 -1
                       0 -1  1   1 -1  0   0 -1  0       0  1 -1  -1  1  0   0  1  0
                       1  0  0   0  0  1   0  1  0      -1  0  0   0  0 -1   0 -1  0
                       0  1 -1   0  0 -1   1  0 -1       0 -1  1   0  0  1  -1  0  1
                      -1  0  1  -1  1  0  -1  0  0       1  0 -1   1 -1  0   1  0  0
                       0 -1  0   1 -1  0   0 -1  1       0  1  0  -1  1  0   0  1 -1
                       1  0 -1   0  0 -1   0  1 -1      -1  0  1   0  0  1   0 -1  1
                       0  1  0   0  0  1   1  0  0       0 -1  0   0  0 -1  -1  0  0
                       1  0 -1   0  1 -1   0  0 -1      -1  0  1   0 -1  1   0  0  1
                       0 -1  0   0 -1  1   1 -1  0       0  1  0   0  1 -1  -1  1  0
                      -1  0  1  -1  0  0  -1  1  0       1  0 -1   1  0  0   1 -1  0
                       0  1  0   1  0  0   0  0  1       0 -1  0  -1  0  0   0  0 -1
                       0  0 -1   0  1 -1   1  0 -1       0  0  1   0 -1  1  -1  0  1
                       1 -1  0   0 -1  1   0 -1  0      -1  1  0   0  1 -1   0  1  0
                       0  0  1   1  0  0   0  1  0       0  0 -1  -1  0  0   0 -1  0
                      -1  1  0  -1  0  0  -1  0  1       1 -1  0   1  0  0   1  0 -1
                       0  0  1   0  1  0   1  0  0       0  0 -1   0 -1  0  -1  0  0
                       1 -1  0   0 -1  0   0 -1  1      -1  1  0   0  1  0   0  1 -1
                       0  0 -1   1  0 -1   0  1 -1       0  0  1  -1  0  1   0 -1  1
                      -1  1  0  -1  0  1  -1  0  0       1 -1  0   1  0 -1   1  0  0
           timopt          -1
            typat      1  2
              wtk        0.00195    0.01563    0.01563    0.01563    0.00781    0.01172
                         0.04688    0.04688    0.04688    0.04688    0.04688    0.02344
                         0.01172    0.04688    0.04688    0.04688    0.02344    0.01172
                         0.04688    0.02344    0.00586    0.04688    0.09375    0.04688
                         0.04688    0.09375    0.04688    0.02344    0.01172
           xangst      0.0000000000E+00  0.0000000000E+00  0.0000000000E+00
                       2.0050000000E+00  2.0050000000E+00  2.0050000000E+00
            xcart      0.0000000000E+00  0.0000000000E+00  0.0000000000E+00
                       3.7889008964E+00  3.7889008964E+00  3.7889008964E+00
             xred      0.0000000000E+00  0.0000000000E+00  0.0000000000E+00
                       5.0000000000E-01  5.0000000000E-01  5.0000000000E-01
            znucl        3.00000    9.00000

================================================================================

 chkinp: Checking input parameters for consistency, jdtset=   1.

 chkinp: Checking input parameters for consistency, jdtset=   2.

================================================================================
== DATASET  1 ==================================================================
-   mpi_nproc: 128, omp_nthreads: -1 (-1 if OMP is not activated)


--- !DatasetInfo
iteration_state: {dtset: 1, }
dimensions: {natom: 2, nkpt: 29, mband: 480, nsppol: 1, nspinor: 1, nspden: 1, mpw: 1363, }
cutoff_energies: {ecut:  40.0, pawecutdg:  -1.0, }
electrons: {nelect:   1.00000000E+01, charge:   0.00000000E+00, occopt:   1.00000000E+00, tsmear:   1.00000000E-02, }
meta: {optdriver: 3, gwcalctyp: 0, }
...

 mkfilename: getwfk from: ../outdata_gs_DS2_WFK

 Exchange-correlation functional for the present dataset will be:
  GGA: Perdew-Burke-Ernzerhof functional - ixc=11
 Citation for XC functional:
  J.P.Perdew, K.Burke, M.Ernzerhof, PRL 77, 3865 (1996)

 SCREENING: Calculation of the susceptibility and dielectric matrices 

 Based on a program developped by R.W. Godby, V. Olevano, G. Onida, and L. Reining.
 Incorporated in ABINIT by V. Olevano, G.-M. Rignanese, and M. Torrent.
.Using single precision arithmetic ; gwpc =  4

 Real(R)+Recip(G) space primitive vectors, cartesian coordinates (Bohr,Bohr^-1):
 R(1)=  0.0000000  3.7889009  3.7889009  G(1)= -0.1319644  0.1319644  0.1319644
 R(2)=  3.7889009  0.0000000  3.7889009  G(2)=  0.1319644 -0.1319644  0.1319644
 R(3)=  3.7889009  3.7889009  0.0000000  G(3)=  0.1319644  0.1319644 -0.1319644
 Unit cell volume ucvol=  1.0878518E+02 bohr^3
 Angles (23,13,12)=  6.00000000E+01  6.00000000E+01  6.00000000E+01 degrees

--- Pseudopotential description ------------------------------------------------
- pspini: atom type   1  psp file is ../Li.psp8
- pspatm: opening atomic psp file    ../Li.psp8
- Li    ONCVPSP-3.2.3.1  r_core=   1.40824   1.10935
-  3.00000   3.00000    170503                znucl, zion, pspdat
    8   11    1    4       400   0.00000      pspcod,pspxc,lmax,lloc,mmax,r2well
    3.99000000000000    0.00000000000000    0.00000000000000   rchrg,fchrg,qchrg
     nproj     2     2
     extension_switch     1
  pspatm : epsatm=    2.74345787
         --- l  ekb(1:nproj) -->
             0   -4.951544   -1.544797
             1   -2.250662   -0.474685
 pspatm: atomic psp has been read  and splines computed

- pspini: atom type   2  psp file is ../F.psp8
- pspatm: opening atomic psp file    ../F.psp8
- F     ONCVPSP-3.2.3.1  r_core=   1.30942   1.45782   1.60379
-  9.00000   7.00000    170504                znucl, zion, pspdat
    8   11    2    4       600   0.00000      pspcod,pspxc,lmax,lloc,mmax,r2well
    5.99000000000000    2.50000000000000    0.00000000000000   rchrg,fchrg,qchrg
     nproj     2     2     1
     extension_switch     1
  pspatm : epsatm=    4.87626060
         --- l  ekb(1:nproj) -->
             0    6.519403    1.070094
             1   -3.955629   -1.291931
             2   -2.441503
 pspatm: atomic psp has been read  and splines computed

   7.61971847E+01                                ecore*ucvol(ha*bohr**3)
--------------------------------------------------------------------------------

 ==== K-mesh for the wavefunctions ====
 Number of points in the irreducible wedge :    29
 Reduced coordinates and weights : 

     1)     0.00000000E+00  0.00000000E+00  0.00000000E+00       0.00195
     2)     1.25000000E-01  0.00000000E+00  0.00000000E+00       0.01563
     3)     2.50000000E-01  0.00000000E+00  0.00000000E+00       0.01563
     4)     3.75000000E-01  0.00000000E+00  0.00000000E+00       0.01563
     5)     5.00000000E-01  0.00000000E+00  0.00000000E+00       0.00781
     6)     1.25000000E-01  1.25000000E-01  0.00000000E+00       0.01172
     7)     2.50000000E-01  1.25000000E-01  0.00000000E+00       0.04688
     8)     3.75000000E-01  1.25000000E-01  0.00000000E+00       0.04688
     9)     5.00000000E-01  1.25000000E-01  0.00000000E+00       0.04688
    10)    -3.75000000E-01  1.25000000E-01  0.00000000E+00       0.04688
    11)    -2.50000000E-01  1.25000000E-01  0.00000000E+00       0.04688
    12)    -1.25000000E-01  1.25000000E-01  0.00000000E+00       0.02344
    13)     2.50000000E-01  2.50000000E-01  0.00000000E+00       0.01172
    14)     3.75000000E-01  2.50000000E-01  0.00000000E+00       0.04688
    15)     5.00000000E-01  2.50000000E-01  0.00000000E+00       0.04688
    16)    -3.75000000E-01  2.50000000E-01  0.00000000E+00       0.04688
    17)    -2.50000000E-01  2.50000000E-01  0.00000000E+00       0.02344
    18)     3.75000000E-01  3.75000000E-01  0.00000000E+00       0.01172
    19)     5.00000000E-01  3.75000000E-01  0.00000000E+00       0.04688
    20)    -3.75000000E-01  3.75000000E-01  0.00000000E+00       0.02344
    21)     5.00000000E-01  5.00000000E-01  0.00000000E+00       0.00586
    22)     3.75000000E-01  2.50000000E-01  1.25000000E-01       0.04688
    23)     5.00000000E-01  2.50000000E-01  1.25000000E-01       0.09375
    24)    -3.75000000E-01  2.50000000E-01  1.25000000E-01       0.04688
    25)     5.00000000E-01  3.75000000E-01  1.25000000E-01       0.04688
    26)    -3.75000000E-01  3.75000000E-01  1.25000000E-01       0.09375
    27)    -2.50000000E-01  3.75000000E-01  1.25000000E-01       0.04688
    28)    -3.75000000E-01  5.00000000E-01  1.25000000E-01       0.02344
    29)    -2.50000000E-01  5.00000000E-01  2.50000000E-01       0.01172

 Together with 48 symmetry operations and time-reversal symmetry 
 yields   512 points in the full Brillouin Zone.


 ==== Q-mesh for the screening function ====
 Number of points in the irreducible wedge :    29
 Reduced coordinates and weights : 

     1)     0.00000000E+00  0.00000000E+00  0.00000000E+00       0.00195
     2)     1.25000000E-01  0.00000000E+00  0.00000000E+00       0.01563
     3)     2.50000000E-01  0.00000000E+00  0.00000000E+00       0.01563
     4)     3.75000000E-01  0.00000000E+00  0.00000000E+00       0.01563
     5)     5.00000000E-01  0.00000000E+00  0.00000000E+00       0.00781
     6)     1.25000000E-01  1.25000000E-01  0.00000000E+00       0.01172
     7)     2.50000000E-01  1.25000000E-01  0.00000000E+00       0.04688
     8)     3.75000000E-01  1.25000000E-01  0.00000000E+00       0.04688
     9)     5.00000000E-01  1.25000000E-01  0.00000000E+00       0.04688
    10)    -3.75000000E-01  1.25000000E-01  0.00000000E+00       0.04688
    11)    -2.50000000E-01  1.25000000E-01  0.00000000E+00       0.04688
    12)    -1.25000000E-01  1.25000000E-01  0.00000000E+00       0.02344
    13)     2.50000000E-01  2.50000000E-01  0.00000000E+00       0.01172
    14)     3.75000000E-01  2.50000000E-01  0.00000000E+00       0.04688
    15)     5.00000000E-01  2.50000000E-01  0.00000000E+00       0.04688
    16)    -3.75000000E-01  2.50000000E-01  0.00000000E+00       0.04688
    17)    -2.50000000E-01  2.50000000E-01  0.00000000E+00       0.02344
    18)     3.75000000E-01  3.75000000E-01  0.00000000E+00       0.01172
    19)     5.00000000E-01  3.75000000E-01  0.00000000E+00       0.04688
    20)    -3.75000000E-01  3.75000000E-01  0.00000000E+00       0.02344
    21)     5.00000000E-01  5.00000000E-01  0.00000000E+00       0.00586
    22)     3.75000000E-01  2.50000000E-01  1.25000000E-01       0.04688
    23)     5.00000000E-01  2.50000000E-01  1.25000000E-01       0.09375
    24)    -3.75000000E-01  2.50000000E-01  1.25000000E-01       0.04688
    25)     5.00000000E-01  3.75000000E-01  1.25000000E-01       0.04688
    26)    -3.75000000E-01  3.75000000E-01  1.25000000E-01       0.09375
    27)    -2.50000000E-01  3.75000000E-01  1.25000000E-01       0.04688
    28)    -3.75000000E-01  5.00000000E-01  1.25000000E-01       0.02344
    29)    -2.50000000E-01  5.00000000E-01  2.50000000E-01       0.01172

 Together with 48 symmetry operations and time-reversal symmetry 
 yields   512 points in the full Brillouin Zone.


 setmesh: FFT mesh size selected  =    24x   24x   24
          total number of points  =        13824


- screening: taking advantage of time-reversal symmetry 
- Maximum band index for partially occupied states nbvw = 5
- Remaining bands to be divided among processors   nbcw = 475
- Number of bands treated by each node ~3

 Number of electrons calculated from density =   10.0000; Expected =   10.0000
 average of density, n =  0.091924
 r_s =    1.3745
 omega_plasma =   29.2463 [eV]


 calculating chi0 at frequencies [eV] :
  1    0.000000E+00    0.000000E+00
  2    0.000000E+00    2.924628E+01


--------------------------------------------------------------------------------
  q-point number  1        q = ( 0.000000, 0.000000, 0.000000) [r.l.u.]
--------------------------------------------------------------------------------
  chi0(G,G') at the    1 th omega   0.0000   0.0000 [eV]
       1       2       3       4       5       6       7       8       9
    1  -0.000  -0.000   0.000   0.000  -0.000  -0.000   0.000   0.000  -0.000
       -0.000   0.000  -0.000  -0.000   0.000   0.000  -0.000  -0.000   0.000

    2  -0.000  -5.367  -0.372  -1.074  -1.981  -1.074  -1.981  -1.074  -1.981
       -0.000   0.000   0.000   0.000   0.000   0.000   0.000   0.000   0.000

  chi0(G,G') at the    2 th omega   0.0000  29.2463 [eV]
       1       2       3       4       5       6       7       8       9
    1  -0.000  -0.000   0.000   0.000  -0.000  -0.000   0.000   0.000  -0.000
       -0.000   0.000  -0.000  -0.000   0.000   0.000  -0.000  -0.000   0.000

    2  -0.000  -3.013   0.225  -0.146  -0.831  -0.146  -0.831  -0.146  -0.831
       -0.000   0.000   0.000  -0.000  -0.000  -0.000   0.000   0.000   0.000

 For q-point:  0.000010 0.000020 0.000030
  dielectric constant =   1.9701
  dielectric constant without local fields =   2.0831

  Average fulfillment of the sum rule on Im[epsilon] for q-point    1 :    103.52  [%]
  Heads and wings of the symmetrical epsilon^-1(G,G') 

   Upper and lower wings at the    1 th omega   0.0000   0.0000 [eV]
       1       2       3       4       5       6       7       8       9
      0.508  -0.018   0.018   0.054  -0.054  -0.054   0.054   0.018  -0.018
     -0.000   0.000  -0.000  -0.000   0.000   0.000  -0.000  -0.000   0.000
       1       2       3       4       5       6       7       8       9
      0.508  -0.018   0.018   0.054  -0.054  -0.054   0.054   0.018  -0.018
     -0.000  -0.000   0.000   0.000  -0.000  -0.000   0.000   0.000  -0.000


   Upper and lower wings at the    2 th omega   0.0000  29.2463 [eV]
       1       2       3       4       5       6       7       8       9
      0.766  -0.013   0.013   0.038  -0.038  -0.038   0.038   0.013  -0.013
     -0.000   0.000  -0.000  -0.000   0.000   0.000  -0.000  -0.000   0.000
       1       2       3       4       5       6       7       8       9
      0.766  -0.013   0.013   0.038  -0.038  -0.038   0.038   0.013  -0.013
     -0.000  -0.000   0.000   0.000  -0.000  -0.000   0.000   0.000  -0.000




--------------------------------------------------------------------------------
  q-point number  2        q = ( 0.125000, 0.000000, 0.000000) [r.l.u.]
--------------------------------------------------------------------------------
  chi0(G,G') at the    1 th omega   0.0000   0.0000 [eV]
       1       2       3       4       5       6       7       8       9
    1  -0.292   0.409  -0.384  -0.012   0.242  -0.012   0.242  -0.012   0.242
        0.000  -0.000  -0.000  -0.000  -0.000  -0.000  -0.000  -0.000  -0.000

    2   0.409  -5.535  -0.365  -1.235  -2.223  -1.235  -2.223  -1.235  -2.223
        0.000   0.000   0.000   0.000   0.000   0.000   0.000   0.000   0.000

  chi0(G,G') at the    2 th omega   0.0000  29.2463 [eV]
       1       2       3       4       5       6       7       8       9
    1  -0.092   0.189  -0.173  -0.028   0.091  -0.028   0.091  -0.028   0.091
        0.000  -0.000  -0.000  -0.000  -0.000  -0.000  -0.000  -0.000  -0.000

    2   0.189  -3.303   0.222  -0.255  -1.033  -0.255  -1.033  -0.255  -1.033
        0.000   0.000   0.000   0.000   0.000   0.000   0.000   0.000   0.000

  Average fulfillment of the sum rule on Im[epsilon] for q-point    2 :    105.49  [%]


--------------------------------------------------------------------------------
  q-point number  3        q = ( 0.250000, 0.000000, 0.000000) [r.l.u.]
--------------------------------------------------------------------------------
  chi0(G,G') at the    1 th omega   0.0000   0.0000 [eV]
       1       2       3       4       5       6       7       8       9
    1  -1.054   0.780  -0.685   0.205   0.624   0.205   0.624   0.205   0.624
        0.000  -0.000  -0.000  -0.000  -0.000  -0.000  -0.000  -0.000  -0.000

    2   0.780  -5.590  -0.344  -1.360  -2.399  -1.360  -2.399  -1.360  -2.399
        0.000   0.000   0.000   0.000   0.000   0.000   0.000   0.000   0.000

  chi0(G,G') at the    2 th omega   0.0000  29.2463 [eV]
       1       2       3       4       5       6       7       8       9
    1  -0.354   0.376  -0.311   0.012   0.230   0.012   0.230   0.012   0.230
        0.000  -0.000  -0.000  -0.000  -0.000  -0.000  -0.000  -0.000  -0.000

    2   0.376  -3.516   0.212  -0.365  -1.214  -0.365  -1.214  -0.365  -1.214
        0.000   0.000   0.000   0.000   0.000   0.000   0.000   0.000   0.000

  Average fulfillment of the sum rule on Im[epsilon] for q-point    3 :    105.00  [%]


--------------------------------------------------------------------------------
  q-point number  4        q = ( 0.375000, 0.000000, 0.000000) [r.l.u.]
--------------------------------------------------------------------------------
  chi0(G,G') at the    1 th omega   0.0000   0.0000 [eV]
       1       2       3       4       5       6       7       8       9
    1  -2.042   1.075  -0.873   0.568   1.025   0.568   1.025   0.568   1.025
        0.000  -0.000   0.000  -0.000  -0.000  -0.000  -0.000  -0.000  -0.000

    2   1.075  -5.558  -0.311  -1.435  -2.512  -1.435  -2.512  -1.435  -2.512
        0.000   0.000   0.000   0.000   0.000   0.000   0.000   0.000   0.000

  chi0(G,G') at the    2 th omega   0.0000  29.2463 [eV]
       1       2       3       4       5       6       7       8       9
    1  -0.749   0.548  -0.401   0.112   0.397   0.112   0.397   0.112   0.397
        0.000  -0.000   0.000  -0.000  -0.000  -0.000  -0.000  -0.000  -0.000

    2   0.548  -3.656   0.196  -0.469  -1.369  -0.469  -1.369  -0.469  -1.369
        0.000   0.000   0.000   0.000   0.000   0.000   0.000   0.000   0.000

  Average fulfillment of the sum rule on Im[epsilon] for q-point    4 :    104.58  [%]


--------------------------------------------------------------------------------
  q-point number  5        q = ( 0.500000, 0.000000, 0.000000) [r.l.u.]
--------------------------------------------------------------------------------
  chi0(G,G') at the    1 th omega   0.0000   0.0000 [eV]
       1       2       3       4       5       6       7       8       9
    1  -3.032   1.291  -0.937   0.980   1.367   0.980   1.367   0.980   1.367
        0.000  -0.000   0.000  -0.000  -0.000  -0.000  -0.000  -0.000  -0.000

    2   1.291  -5.461  -0.266  -1.462  -2.578  -1.462  -2.578  -1.462  -2.578
        0.000   0.000   0.000   0.000   0.000   0.000   0.000   0.000   0.000

  chi0(G,G') at the    2 th omega   0.0000  29.2463 [eV]
       1       2       3       4       5       6       7       8       9
    1  -1.223   0.697  -0.432   0.259   0.571   0.259   0.571   0.259   0.571
        0.000  -0.000   0.000  -0.000  -0.000  -0.000  -0.000  -0.000  -0.000

    2   0.697  -3.732   0.171  -0.563  -1.496  -0.563  -1.496  -0.563  -1.496
        0.000   0.000   0.000   0.000   0.000   0.000   0.000   0.000   0.000

  Average fulfillment of the sum rule on Im[epsilon] for q-point    5 :    104.43  [%]


--------------------------------------------------------------------------------
  q-point number  6        q = ( 0.125000, 0.125000, 0.000000) [r.l.u.]
--------------------------------------------------------------------------------
  chi0(G,G') at the    1 th omega   0.0000   0.0000 [eV]
       1       2       3       4       5       6       7       8       9
    1  -0.385   0.373  -0.134  -0.134   0.373  -0.134   0.373   0.373  -0.134
        0.000  -0.000  -0.000  -0.000  -0.000  -0.000  -0.000  -0.000  -0.000

    2   0.373  -5.515  -0.432  -1.105  -2.243  -1.105  -2.243  -1.383  -1.997
        0.000   0.000   0.000   0.000   0.000   0.000   0.000   0.000   0.000

  chi0(G,G') at the    2 th omega   0.0000  29.2463 [eV]
       1       2       3       4       5       6       7       8       9
    1  -0.122   0.152  -0.084  -0.084   0.152  -0.084   0.152   0.152  -0.084
        0.000  -0.000  -0.000  -0.000  -0.000  -0.000  -0.000  -0.000  -0.000

    2   0.152  -3.229   0.204  -0.163  -1.040  -0.163  -1.040  -0.355  -0.846
        0.000   0.000   0.000   0.000   0.000   0.000   0.000   0.000   0.000

  Average fulfillment of the sum rule on Im[epsilon] for q-point    6 :    105.42  [%]


--------------------------------------------------------------------------------
  q-point number  7        q = ( 0.250000, 0.125000, 0.000000) [r.l.u.]
--------------------------------------------------------------------------------
  chi0(G,G') at the    1 th omega   0.0000   0.0000 [eV]
       1       2       3       4       5       6       7       8       9
    1  -0.980   0.739  -0.451  -0.004   0.661  -0.004   0.661   0.525   0.306
        0.000  -0.000  -0.000  -0.000  -0.000  -0.000  -0.000  -0.000  -0.000

    2   0.739  -5.597  -0.414  -1.249  -2.415  -1.249  -2.415  -1.493  -2.236
        0.000   0.000   0.000   0.000   0.000   0.000  -0.000  -0.000   0.000

  chi0(G,G') at the    2 th omega   0.0000  29.2463 [eV]
       1       2       3       4       5       6       7       8       9
    1  -0.326   0.337  -0.232  -0.070   0.264  -0.070   0.264   0.174   0.064
        0.000  -0.000  -0.000  -0.000  -0.000  -0.000  -0.000  -0.000  -0.000

    2   0.337  -3.462   0.196  -0.276  -1.215  -0.276  -1.215  -0.455  -1.056
        0.000   0.000   0.000   0.000   0.000   0.000  -0.000  -0.000   0.000

  Average fulfillment of the sum rule on Im[epsilon] for q-point    7 :    105.05  [%]


--------------------------------------------------------------------------------
  q-point number  8        q = ( 0.375000, 0.125000, 0.000000) [r.l.u.]
--------------------------------------------------------------------------------
  chi0(G,G') at the    1 th omega   0.0000   0.0000 [eV]
       1       2       3       4       5       6       7       8       9
    1  -1.875   1.043  -0.671   0.321   1.009   0.321   1.009   0.812   0.797
        0.000  -0.000  -0.000  -0.000  -0.000  -0.000  -0.000  -0.000  -0.000

    2   1.043  -5.586  -0.382  -1.349  -2.531  -1.349  -2.531  -1.559  -2.398
        0.000   0.000   0.000   0.000   0.000   0.000   0.000   0.000   0.000

  chi0(G,G') at the    2 th omega   0.0000  29.2463 [eV]
       1       2       3       4       5       6       7       8       9
    1  -0.673   0.511  -0.337   0.012   0.407   0.012   0.407   0.249   0.249
        0.000  -0.000  -0.000  -0.000  -0.000  -0.000  -0.000  -0.000  -0.000

    2   0.511  -3.622   0.182  -0.386  -1.367  -0.386  -1.367  -0.548  -1.239
        0.000   0.000   0.000   0.000   0.000   0.000   0.000   0.000   0.000

  Average fulfillment of the sum rule on Im[epsilon] for q-point    8 :    104.64  [%]


--------------------------------------------------------------------------------
  q-point number  9        q = ( 0.500000, 0.125000, 0.000000) [r.l.u.]
--------------------------------------------------------------------------------
  chi0(G,G') at the    1 th omega   0.0000   0.0000 [eV]
       1       2       3       4       5       6       7       8       9
    1  -2.842   1.270  -0.774   0.743   1.329   0.743   1.329   1.153   1.232
        0.000  -0.000   0.000  -0.000  -0.000  -0.000  -0.000  -0.000  -0.000

    2   1.270  -5.505  -0.338  -1.401  -2.600  -1.401  -2.600  -1.580  -2.499
        0.000   0.000   0.000   0.000   0.000   0.000   0.000   0.000   0.000

  chi0(G,G') at the    2 th omega   0.0000  29.2463 [eV]
       1       2       3       4       5       6       7       8       9
    1  -1.117   0.664  -0.387   0.150   0.565   0.150   0.565   0.368   0.447
        0.000  -0.000   0.000  -0.000  -0.000  -0.000  -0.000  -0.000  -0.000

    2   0.664  -3.716   0.161  -0.489  -1.494  -0.489  -1.494  -0.633  -1.392
        0.000   0.000   0.000   0.000   0.000   0.000   0.000   0.000   0.000

  Average fulfillment of the sum rule on Im[epsilon] for q-point    9 :    104.42  [%]


--------------------------------------------------------------------------------
  q-point number 10        q = (-0.375000, 0.125000, 0.000000) [r.l.u.]
--------------------------------------------------------------------------------
  chi0(G,G') at the    1 th omega   0.0000   0.0000 [eV]
       1       2       3       4       5       6       7       8       9
    1  -2.525  -0.754   1.202   1.161   0.928   1.161   0.928   1.238   0.360
        0.000  -0.000  -0.000  -0.000  -0.000  -0.000  -0.000  -0.000  -0.000

    2  -0.754  -3.721  -0.353  -0.414  -1.066  -0.414  -1.066  -0.702  -0.441
        0.000   0.000   0.000   0.000   0.000   0.000   0.000   0.000   0.000

  chi0(G,G') at the    2 th omega   0.0000  29.2463 [eV]
       1       2       3       4       5       6       7       8       9
    1  -0.962  -0.377   0.616   0.431   0.259   0.431   0.259   0.544   0.002
        0.000  -0.000  -0.000  -0.000  -0.000  -0.000  -0.000  -0.000  -0.000

    2  -0.377  -1.605   0.169   0.172  -0.271   0.172  -0.271  -0.018   0.054
        0.000   0.000   0.000   0.000   0.000   0.000   0.000   0.000   0.000

  Average fulfillment of the sum rule on Im[epsilon] for q-point   10 :    104.46  [%]


--------------------------------------------------------------------------------
  q-point number 11        q = (-0.250000, 0.125000, 0.000000) [r.l.u.]
--------------------------------------------------------------------------------
  chi0(G,G') at the    1 th omega   0.0000   0.0000 [eV]
       1       2       3       4       5       6       7       8       9
    1  -1.559  -0.611   0.949   0.749   0.576   0.749   0.576   0.928  -0.074
        0.000  -0.000  -0.000  -0.000  -0.000  -0.000  -0.000  -0.000  -0.000

    2  -0.611  -4.434  -0.393  -0.579  -1.411  -0.579  -1.411  -0.886  -0.872
        0.000   0.000   0.000   0.000   0.000   0.000   0.000   0.000   0.000

  chi0(G,G') at the    2 th omega   0.0000  29.2463 [eV]
       1       2       3       4       5       6       7       8       9
    1  -0.545  -0.308   0.455   0.250   0.148   0.250   0.148   0.400  -0.125
        0.000  -0.000  -0.000  -0.000  -0.000  -0.000  -0.000  -0.000  -0.000

    2  -0.308  -2.089   0.188   0.120  -0.449   0.120  -0.449  -0.080  -0.148
        0.000   0.000   0.000   0.000   0.000   0.000   0.000   0.000   0.000

  Average fulfillment of the sum rule on Im[epsilon] for q-point   11 :    104.76  [%]


--------------------------------------------------------------------------------
  q-point number 12        q = (-0.125000, 0.125000, 0.000000) [r.l.u.]
--------------------------------------------------------------------------------
  chi0(G,G') at the    1 th omega   0.0000   0.0000 [eV]
       1       2       3       4       5       6       7       8       9
    1  -0.735  -0.356   0.621   0.321   0.321   0.321   0.321   0.621  -0.356
        0.000  -0.000  -0.000  -0.000  -0.000  -0.000  -0.000  -0.000  -0.000

    2  -0.356  -4.962  -0.421  -0.755  -1.732  -0.755  -1.732  -1.066  -1.295
        0.000   0.000   0.000   0.000   0.000   0.000  -0.000   0.000   0.000

  chi0(G,G') at the    2 th omega   0.0000  29.2463 [eV]
       1       2       3       4       5       6       7       8       9
    1  -0.240  -0.187   0.276   0.089   0.089   0.089   0.089   0.276  -0.187
        0.000  -0.000  -0.000  -0.000  -0.000  -0.000  -0.000  -0.000  -0.000

    2  -0.187  -2.535   0.199   0.043  -0.646   0.043  -0.646  -0.161  -0.378
        0.000   0.000   0.000  -0.000   0.000  -0.000  -0.000   0.000   0.000

  Average fulfillment of the sum rule on Im[epsilon] for q-point   12 :    105.19  [%]


--------------------------------------------------------------------------------
  q-point number 13        q = ( 0.250000, 0.250000, 0.000000) [r.l.u.]
--------------------------------------------------------------------------------
  chi0(G,G') at the    1 th omega   0.0000   0.0000 [eV]
       1       2       3       4       5       6       7       8       9
    1  -1.356   0.841   0.017   0.017   0.841   0.017   0.841   0.841   0.017
        0.000  -0.000  -0.000  -0.000  -0.000  -0.000  -0.000  -0.000  -0.000

    2   0.841  -5.621  -0.584  -1.181  -2.458  -1.181  -2.458  -1.592  -2.036
        0.000   0.000   0.000   0.000   0.000   0.000  -0.000   0.000   0.000

  chi0(G,G') at the    2 th omega   0.0000  29.2463 [eV]
       1       2       3       4       5       6       7       8       9
    1  -0.464   0.344  -0.083  -0.083   0.344  -0.083   0.344   0.344  -0.083
        0.000  -0.000  -0.000  -0.000  -0.000  -0.000  -0.000  -0.000  -0.000

    2   0.344  -3.423   0.141  -0.212  -1.237  -0.212  -1.237  -0.544  -0.890
        0.000   0.000  -0.000   0.000   0.000   0.000   0.000   0.000   0.000

  Average fulfillment of the sum rule on Im[epsilon] for q-point   13 :    104.85  [%]


--------------------------------------------------------------------------------
  q-point number 14        q = ( 0.375000, 0.250000, 0.000000) [r.l.u.]
--------------------------------------------------------------------------------
  chi0(G,G') at the    1 th omega   0.0000   0.0000 [eV]
       1       2       3       4       5       6       7       8       9
    1  -2.059   1.113  -0.207   0.255   1.100   0.255   1.100   1.054   0.576
        0.000  -0.000  -0.000  -0.000  -0.000  -0.000  -0.000  -0.000  -0.000

    2   1.113  -5.622  -0.552  -1.290  -2.566  -1.290  -2.566  -1.649  -2.256
        0.000   0.000   0.000   0.000   0.000   0.000   0.000   0.000   0.000

  chi0(G,G') at the    2 th omega   0.0000  29.2463 [eV]
       1       2       3       4       5       6       7       8       9
    1  -0.747   0.510  -0.195  -0.026   0.460  -0.026   0.460   0.398   0.113
        0.000  -0.000  -0.000  -0.000  -0.000  -0.000  -0.000  -0.000  -0.000

    2   0.510  -3.596   0.131  -0.323  -1.381  -0.323  -1.381  -0.627  -1.100
        0.000   0.000   0.000   0.000   0.000   0.000   0.000   0.000   0.000

  Average fulfillment of the sum rule on Im[epsilon] for q-point   14 :    104.57  [%]


--------------------------------------------------------------------------------
  q-point number 15        q = ( 0.500000, 0.250000, 0.000000) [r.l.u.]
--------------------------------------------------------------------------------
  chi0(G,G') at the    1 th omega   0.0000   0.0000 [eV]
       1       2       3       4       5       6       7       8       9
    1  -2.902   1.324  -0.338   0.635   1.368   0.635   1.368   1.321   1.098
        0.000  -0.000  -0.000  -0.000  -0.000  -0.000  -0.000  -0.000  -0.000

    2   1.324  -5.552  -0.503  -1.357  -2.633  -1.357  -2.633  -1.667  -2.401
        0.000   0.000   0.000   0.000   0.000   0.000   0.000   0.000   0.000

  chi0(G,G') at the    2 th omega   0.0000  29.2463 [eV]
       1       2       3       4       5       6       7       8       9
    1  -1.136   0.658  -0.259   0.092   0.593   0.092   0.593   0.489   0.330
        0.000  -0.000  -0.000  -0.000  -0.000  -0.000  -0.000  -0.000  -0.000

    2   0.658  -3.702   0.114  -0.430  -1.503  -0.430  -1.503  -0.702  -1.279
        0.000   0.000   0.000   0.000   0.000   0.000   0.000   0.000   0.000

  Average fulfillment of the sum rule on Im[epsilon] for q-point   15 :    104.39  [%]


--------------------------------------------------------------------------------
  q-point number 16        q = (-0.375000, 0.250000, 0.000000) [r.l.u.]
--------------------------------------------------------------------------------
  chi0(G,G') at the    1 th omega   0.0000   0.0000 [eV]
       1       2       3       4       5       6       7       8       9
    1  -3.199  -0.361   1.377   1.386   1.312   1.386   1.312   1.416   0.227
        0.000  -0.000  -0.000  -0.000  -0.000  -0.000  -0.000  -0.000  -0.000

    2  -0.361  -3.721  -0.475  -0.414  -1.249  -0.414  -1.249  -0.850   0.062
        0.000   0.000   0.000   0.000   0.000   0.000   0.000   0.000   0.000

  chi0(G,G') at the    2 th omega   0.0000  29.2463 [eV]
       1       2       3       4       5       6       7       8       9
    1  -1.284  -0.269   0.703   0.505   0.431   0.505   0.431   0.680  -0.069
        0.000  -0.000  -0.000  -0.000  -0.000  -0.000  -0.000  -0.000  -0.000

    2  -0.269  -1.585   0.108   0.182  -0.387   0.182  -0.387  -0.149   0.278
        0.000   0.000   0.000   0.000   0.000   0.000   0.000   0.000   0.000

  Average fulfillment of the sum rule on Im[epsilon] for q-point   16 :    104.36  [%]


--------------------------------------------------------------------------------
  q-point number 17        q = (-0.250000, 0.250000, 0.000000) [r.l.u.]
--------------------------------------------------------------------------------
  chi0(G,G') at the    1 th omega   0.0000   0.0000 [eV]
       1       2       3       4       5       6       7       8       9
    1  -2.340  -0.270   1.184   1.001   1.001   1.001   1.001   1.184  -0.270
        0.000  -0.000  -0.000  -0.000  -0.000  -0.000  -0.000  -0.000  -0.000

    2  -0.270  -4.417  -0.528  -0.554  -1.552  -0.554  -1.552  -1.029  -0.392
        0.000   0.000   0.000   0.000   0.000   0.000   0.000   0.000   0.000

  chi0(G,G') at the    2 th omega   0.0000  29.2463 [eV]
       1       2       3       4       5       6       7       8       9
    1  -0.869  -0.223   0.561   0.320   0.320   0.320   0.320   0.561  -0.223
        0.000  -0.000  -0.000  -0.000  -0.000  -0.000  -0.000  -0.000  -0.000

    2  -0.223  -2.045   0.127   0.148  -0.539   0.148  -0.539  -0.206   0.086
        0.000   0.000   0.000   0.000   0.000   0.000   0.000   0.000   0.000

  Average fulfillment of the sum rule on Im[epsilon] for q-point   17 :    104.50  [%]


--------------------------------------------------------------------------------
  q-point number 18        q = ( 0.375000, 0.375000, 0.000000) [r.l.u.]
--------------------------------------------------------------------------------
  chi0(G,G') at the    1 th omega   0.0000   0.0000 [eV]
       1       2       3       4       5       6       7       8       9
    1  -2.530   1.265   0.385   0.385   1.265   0.385   1.265   1.265   0.385
        0.000  -0.000  -0.000  -0.000  -0.000  -0.000  -0.000  -0.000  -0.000

    2   1.265  -5.653  -0.770  -1.266  -2.604  -1.266  -2.604  -1.701  -2.080
        0.000   0.000   0.000   0.000  -0.000   0.000  -0.000   0.000   0.000

  chi0(G,G') at the    2 th omega   0.0000  29.2463 [eV]
       1       2       3       4       5       6       7       8       9
    1  -0.958   0.545   0.003   0.003   0.545   0.003   0.545   0.545   0.003
        0.000  -0.000  -0.000  -0.000  -0.000  -0.000  -0.000  -0.000  -0.000

    2   0.545  -3.580   0.048  -0.287  -1.409  -0.287  -1.409  -0.701  -0.959
        0.000   0.000   0.000   0.000  -0.000   0.000  -0.000   0.000   0.000

  Average fulfillment of the sum rule on Im[epsilon] for q-point   18 :    104.44  [%]


--------------------------------------------------------------------------------
  q-point number 19        q = ( 0.500000, 0.375000, 0.000000) [r.l.u.]
--------------------------------------------------------------------------------
  chi0(G,G') at the    1 th omega   0.0000   0.0000 [eV]
       1       2       3       4       5       6       7       8       9
    1  -3.173   1.433   0.248   0.674   1.457   0.674   1.457   1.463   0.967
        0.000  -0.000  -0.000  -0.000  -0.000  -0.000  -0.000  -0.000  -0.000

    2   1.433  -5.588  -0.717  -1.333  -2.665  -1.333  -2.665  -1.718  -2.274
        0.000   0.000   0.000   0.000   0.000   0.000   0.000   0.000   0.000

  chi0(G,G') at the    2 th omega   0.0000  29.2463 [eV]
       1       2       3       4       5       6       7       8       9
    1  -1.279   0.681  -0.069   0.095   0.651   0.095   0.651   0.613   0.230
        0.000  -0.000  -0.000  -0.000  -0.000  -0.000  -0.000  -0.000  -0.000

    2   0.681  -3.692   0.036  -0.391  -1.522  -0.391  -1.522  -0.767  -1.161
        0.000   0.000   0.000   0.000   0.000   0.000   0.000   0.000   0.000

  Average fulfillment of the sum rule on Im[epsilon] for q-point   19 :    104.33  [%]


--------------------------------------------------------------------------------
  q-point number 20        q = (-0.375000, 0.375000, 0.000000) [r.l.u.]
--------------------------------------------------------------------------------
  chi0(G,G') at the    1 th omega   0.0000   0.0000 [eV]
       1       2       3       4       5       6       7       8       9
    1  -3.905   0.189   1.550   1.646   1.646   1.646   1.646   1.550   0.189
        0.000   0.000  -0.000  -0.000  -0.000  -0.000  -0.000  -0.000   0.000

    2   0.189  -3.859  -0.622  -0.515  -1.454  -0.515  -1.454  -0.959   0.488
       -0.000   0.000   0.000   0.000   0.000   0.000   0.000   0.000   0.000

  chi0(G,G') at the    2 th omega   0.0000  29.2463 [eV]
       1       2       3       4       5       6       7       8       9
    1  -1.674  -0.094   0.799   0.609   0.609   0.609   0.609   0.799  -0.094
        0.000   0.000  -0.000  -0.000  -0.000  -0.000  -0.000  -0.000   0.000

    2  -0.094  -1.668   0.022   0.140  -0.537   0.140  -0.537  -0.276   0.446
       -0.000   0.000   0.000   0.000   0.000   0.000   0.000   0.000   0.000

  Average fulfillment of the sum rule on Im[epsilon] for q-point   20 :    104.31  [%]


--------------------------------------------------------------------------------
  q-point number 21        q = ( 0.500000, 0.500000, 0.000000) [r.l.u.]
--------------------------------------------------------------------------------
  chi0(G,G') at the    1 th omega   0.0000   0.0000 [eV]
       1       2       3       4       5       6       7       8       9
    1  -3.595   1.573   0.852   0.852   1.573   0.852   1.573   1.573   0.852
        0.000  -0.000  -0.000  -0.000  -0.000  -0.000  -0.000  -0.000  -0.000

    2   1.573  -5.604  -0.930  -1.327  -2.686  -1.327  -2.686  -1.738  -2.110
        0.000   0.000   0.000   0.000   0.000   0.000   0.000   0.000   0.000

  chi0(G,G') at the    2 th omega   0.0000  29.2463 [eV]
       1       2       3       4       5       6       7       8       9
    1  -1.524   0.730   0.159   0.159   0.730   0.159   0.730   0.730   0.159
        0.000  -0.000  -0.000  -0.000  -0.000  -0.000  -0.000  -0.000  -0.000

    2   0.730  -3.688  -0.063  -0.378  -1.550  -0.378  -1.550  -0.826  -1.046
        0.000   0.000  -0.000   0.000   0.000   0.000   0.000   0.000   0.000

  Average fulfillment of the sum rule on Im[epsilon] for q-point   21 :    104.30  [%]


--------------------------------------------------------------------------------
  q-point number 22        q = ( 0.375000, 0.250000, 0.125000) [r.l.u.]
--------------------------------------------------------------------------------
  chi0(G,G') at the    1 th omega   0.0000   0.0000 [eV]
       1       2       3       4       5       6       7       8       9
    1  -1.629   0.970  -0.268   0.488   0.848  -0.268   0.970   0.848   0.488
        0.000  -0.000  -0.000  -0.000  -0.000  -0.000  -0.000  -0.000  -0.000

    2   0.970  -5.620  -0.512  -1.428  -2.454  -1.082  -2.537  -1.592  -2.262
        0.000   0.000   0.000   0.000   0.000   0.000  -0.000   0.000   0.000

  chi0(G,G') at the    2 th omega   0.0000  29.2463 [eV]
       1       2       3       4       5       6       7       8       9
    1  -0.570   0.437  -0.198   0.100   0.302  -0.198   0.437   0.302   0.100
        0.000  -0.000  -0.000  -0.000  -0.000  -0.000  -0.000  -0.000  -0.000

    2   0.437  -3.538   0.154  -0.403  -1.245  -0.193  -1.361  -0.552  -1.085
        0.000   0.000   0.000   0.000   0.000   0.000  -0.000   0.000   0.000

  Average fulfillment of the sum rule on Im[epsilon] for q-point   22 :    104.73  [%]


--------------------------------------------------------------------------------
  q-point number 23        q = ( 0.500000, 0.250000, 0.125000) [r.l.u.]
--------------------------------------------------------------------------------
  chi0(G,G') at the    1 th omega   0.0000   0.0000 [eV]
       1       2       3       4       5       6       7       8       9
    1  -2.489   1.218  -0.437   0.806   1.194   0.122   1.237   1.125   0.987
        0.000  -0.000  -0.000  -0.000  -0.000  -0.000   0.000  -0.000  -0.000

    2   1.218  -5.577  -0.471  -1.487  -2.553  -1.192  -2.618  -1.629  -2.411
        0.000   0.000   0.000   0.000   0.000   0.000  -0.000   0.000   0.000

  chi0(G,G') at the    2 th omega   0.0000  29.2463 [eV]
       1       2       3       4       5       6       7       8       9
    1  -0.938   0.596  -0.282   0.194   0.457  -0.091   0.560   0.387   0.300
        0.000  -0.000  -0.000  -0.000  -0.000  -0.000  -0.000  -0.000  -0.000

    2   0.596  -3.669   0.139  -0.501  -1.392  -0.312  -1.486  -0.635  -1.264
        0.000   0.000   0.000   0.000   0.000   0.000  -0.000   0.000   0.000

  Average fulfillment of the sum rule on Im[epsilon] for q-point   23 :    104.47  [%]


--------------------------------------------------------------------------------
  q-point number 24        q = (-0.375000, 0.250000, 0.125000) [r.l.u.]
--------------------------------------------------------------------------------
  chi0(G,G') at the    1 th omega   0.0000   0.0000 [eV]
       1       2       3       4       5       6       7       8       9
    1  -3.368  -0.496   1.399   1.496   1.178   1.405   1.428   1.476   0.607
        0.000  -0.000  -0.000  -0.000  -0.000  -0.000   0.000  -0.000   0.000

    2  -0.496  -3.368  -0.416  -0.537  -0.806  -0.158  -1.203  -0.723  -0.060
        0.000   0.000   0.000   0.000   0.000   0.000   0.000   0.000   0.000

  chi0(G,G') at the    2 th omega   0.0000  29.2463 [eV]
       1       2       3       4       5       6       7       8       9
    1  -1.382  -0.310   0.734   0.619   0.332   0.505   0.505   0.691   0.073
        0.000  -0.000  -0.000  -0.000  -0.000  -0.000  -0.000  -0.000   0.000

    2  -0.310  -1.382   0.117   0.078  -0.136   0.289  -0.395  -0.076   0.221
        0.000   0.000   0.000   0.000   0.000   0.000   0.000   0.000   0.000

  Average fulfillment of the sum rule on Im[epsilon] for q-point   24 :    104.37  [%]


--------------------------------------------------------------------------------
  q-point number 25        q = ( 0.500000, 0.375000, 0.125000) [r.l.u.]
--------------------------------------------------------------------------------
  chi0(G,G') at the    1 th omega   0.0000   0.0000 [eV]
       1       2       3       4       5       6       7       8       9
    1  -2.727   1.310   0.083   0.819   1.307   0.083   1.310   1.307   0.819
        0.000  -0.000  -0.000  -0.000  -0.000  -0.000   0.000  -0.000  -0.000

    2   1.310  -5.613  -0.662  -1.462  -2.597  -1.131  -2.642  -1.695  -2.278
        0.000   0.000   0.000   0.000   0.000   0.000  -0.000   0.000   0.000

  chi0(G,G') at the    2 th omega   0.0000  29.2463 [eV]
       1       2       3       4       5       6       7       8       9
    1  -1.049   0.608  -0.116   0.184   0.521  -0.116   0.608   0.521   0.184
        0.000  -0.000  -0.000  -0.000  -0.000  -0.000  -0.000  -0.000  -0.000

    2   0.608  -3.652   0.074  -0.458  -1.414  -0.254  -1.499  -0.706  -1.137
        0.000   0.000   0.000   0.000   0.000   0.000  -0.000   0.000   0.000

  Average fulfillment of the sum rule on Im[epsilon] for q-point   25 :    104.40  [%]


--------------------------------------------------------------------------------
  q-point number 26        q = (-0.375000, 0.375000, 0.125000) [r.l.u.]
--------------------------------------------------------------------------------
  chi0(G,G') at the    1 th omega   0.0000   0.0000 [eV]
       1       2       3       4       5       6       7       8       9
    1  -3.977  -0.005   1.547   1.705   1.576   1.642   1.696   1.594   0.549
        0.000   0.000  -0.000  -0.000  -0.000  -0.000   0.000  -0.000   0.000

    2  -0.005  -3.478  -0.543  -0.595  -1.097  -0.240  -1.369  -0.847   0.379
       -0.000   0.000   0.000   0.000   0.000   0.000  -0.000   0.000   0.000

  chi0(G,G') at the    2 th omega   0.0000  29.2463 [eV]
       1       2       3       4       5       6       7       8       9
    1  -1.723  -0.159   0.815   0.700   0.525   0.596   0.654   0.803   0.036
        0.000   0.000  -0.000  -0.000  -0.000  -0.000   0.000  -0.000   0.000

    2  -0.159  -1.437   0.044   0.056  -0.305   0.261  -0.521  -0.205   0.404
       -0.000   0.000   0.000   0.000   0.000   0.000   0.000   0.000  -0.000

  Average fulfillment of the sum rule on Im[epsilon] for q-point   26 :    104.32  [%]


--------------------------------------------------------------------------------
  q-point number 27        q = (-0.250000, 0.375000, 0.125000) [r.l.u.]
--------------------------------------------------------------------------------
  chi0(G,G') at the    1 th omega   0.0000   0.0000 [eV]
       1       2       3       4       5       6       7       8       9
    1  -3.242   0.008   1.417   1.441   1.269   1.269   1.441   1.417   0.008
        0.000   0.000  -0.000  -0.000  -0.000  -0.000  -0.000  -0.000   0.000

    2   0.008  -4.182  -0.612  -0.732  -1.378  -0.313  -1.629  -1.023  -0.009
       -0.000   0.000   0.000   0.000   0.000   0.000  -0.000   0.000  -0.000

  chi0(G,G') at the    2 th omega   0.0000  29.2463 [eV]
       1       2       3       4       5       6       7       8       9
    1  -1.303  -0.151   0.697   0.543   0.396   0.396   0.543   0.697  -0.151
        0.000   0.000  -0.000  -0.000  -0.000  -0.000  -0.000  -0.000   0.000

    2  -0.151  -1.866   0.065   0.036  -0.429   0.264  -0.638  -0.250   0.257
       -0.000   0.000   0.000   0.000   0.000   0.000   0.000   0.000  -0.000

  Average fulfillment of the sum rule on Im[epsilon] for q-point   27 :    104.35  [%]


--------------------------------------------------------------------------------
  q-point number 28        q = (-0.375000, 0.500000, 0.125000) [r.l.u.]
--------------------------------------------------------------------------------
  chi0(G,G') at the    1 th omega   0.0000   0.0000 [eV]
       1       2       3       4       5       6       7       8       9
    1  -4.547   0.575   1.680   1.913   1.885   1.885   1.913   1.680   0.575
        0.000   0.000  -0.000   0.000  -0.000  -0.000   0.000  -0.000   0.000

    2   0.575  -3.736  -0.671  -0.725  -1.387  -0.431  -1.550  -0.936   0.675
       -0.000   0.000   0.000   0.000   0.000   0.000  -0.000   0.000  -0.000

  chi0(G,G') at the    2 th omega   0.0000  29.2463 [eV]
       1       2       3       4       5       6       7       8       9
    1  -2.101   0.044   0.898   0.799   0.709   0.709   0.799   0.898   0.044
        0.000   0.000  -0.000   0.000  -0.000  -0.000   0.000  -0.000   0.000

    2   0.044  -1.597  -0.047  -0.011  -0.501   0.178  -0.673  -0.329   0.514
       -0.000   0.000   0.000   0.000   0.000   0.000  -0.000   0.000  -0.000

  Average fulfillment of the sum rule on Im[epsilon] for q-point   28 :    104.31  [%]


--------------------------------------------------------------------------------
  q-point number 29        q = (-0.250000, 0.500000, 0.250000) [r.l.u.]
--------------------------------------------------------------------------------
  chi0(G,G') at the    1 th omega   0.0000   0.0000 [eV]
       1       2       3       4       5       6       7       8       9
    1  -4.097   0.473   1.616   1.753   1.589   1.589   1.753   1.616   0.473
        0.000   0.000  -0.000   0.000  -0.000  -0.000   0.000  -0.000   0.000

    2   0.473  -4.097  -0.720  -0.902  -1.312  -0.222  -1.706  -1.042   0.130
       -0.000   0.000   0.000   0.000   0.000   0.000  -0.000   0.000   0.000

  chi0(G,G') at the    2 th omega   0.0000  29.2463 [eV]
       1       2       3       4       5       6       7       8       9
    1  -1.802   0.003   0.828   0.744   0.519   0.519   0.744   0.828   0.003
        0.000   0.000  -0.000   0.000  -0.000  -0.000   0.000  -0.000   0.000

    2   0.003  -1.802  -0.022  -0.101  -0.390   0.306  -0.762  -0.318   0.318
       -0.000   0.000   0.000   0.000   0.000   0.000  -0.000   0.000   0.000

  Average fulfillment of the sum rule on Im[epsilon] for q-point   29 :    104.30  [%]

================================================================================
== DATASET  2 ==================================================================
-   mpi_nproc: 128, omp_nthreads: -1 (-1 if OMP is not activated)


--- !DatasetInfo
iteration_state: {dtset: 2, }
dimensions: {natom: 2, nkpt: 29, mband: 480, nsppol: 1, nspinor: 1, nspden: 1, mpw: 1363, }
cutoff_energies: {ecut:  40.0, pawecutdg:  -1.0, }
electrons: {nelect:   1.00000000E+01, charge:   0.00000000E+00, occopt:   1.00000000E+00, tsmear:   1.00000000E-02, }
meta: {optdriver: 4, gwcalctyp: 0, }
...

 mkfilename: getwfk from: ../outdata_gs_DS2_WFK

 mkfilename : getscr/=0, take file _SCR from output of DATASET   1.

 Exchange-correlation functional for the present dataset will be:
  GGA: Perdew-Burke-Ernzerhof functional - ixc=11
 Citation for XC functional:
  J.P.Perdew, K.Burke, M.Ernzerhof, PRL 77, 3865 (1996)

 SIGMA: Calculation of the GW corrections 

 Based on a program developped by R.W. Godby, V. Olevano, G. Onida, and L. Reining.
 Incorporated in ABINIT by V. Olevano, G.-M. Rignanese, and M. Torrent.
.Using single precision arithmetic ; gwpc =  4

 Real(R)+Recip(G) space primitive vectors, cartesian coordinates (Bohr,Bohr^-1):
 R(1)=  0.0000000  3.7889009  3.7889009  G(1)= -0.1319644  0.1319644  0.1319644
 R(2)=  3.7889009  0.0000000  3.7889009  G(2)=  0.1319644 -0.1319644  0.1319644
 R(3)=  3.7889009  3.7889009  0.0000000  G(3)=  0.1319644  0.1319644 -0.1319644
 Unit cell volume ucvol=  1.0878518E+02 bohr^3
 Angles (23,13,12)=  6.00000000E+01  6.00000000E+01  6.00000000E+01 degrees
--------------------------------------------------------------------------------

 ==== K-mesh for the wavefunctions ====
 Number of points in the irreducible wedge :    29
 Reduced coordinates and weights : 

     1)     0.00000000E+00  0.00000000E+00  0.00000000E+00       0.00195
     2)     1.25000000E-01  0.00000000E+00  0.00000000E+00       0.01563
     3)     2.50000000E-01  0.00000000E+00  0.00000000E+00       0.01563
     4)     3.75000000E-01  0.00000000E+00  0.00000000E+00       0.01563
     5)     5.00000000E-01  0.00000000E+00  0.00000000E+00       0.00781
     6)     1.25000000E-01  1.25000000E-01  0.00000000E+00       0.01172
     7)     2.50000000E-01  1.25000000E-01  0.00000000E+00       0.04688
     8)     3.75000000E-01  1.25000000E-01  0.00000000E+00       0.04688
     9)     5.00000000E-01  1.25000000E-01  0.00000000E+00       0.04688
    10)    -3.75000000E-01  1.25000000E-01  0.00000000E+00       0.04688
    11)    -2.50000000E-01  1.25000000E-01  0.00000000E+00       0.04688
    12)    -1.25000000E-01  1.25000000E-01  0.00000000E+00       0.02344
    13)     2.50000000E-01  2.50000000E-01  0.00000000E+00       0.01172
    14)     3.75000000E-01  2.50000000E-01  0.00000000E+00       0.04688
    15)     5.00000000E-01  2.50000000E-01  0.00000000E+00       0.04688
    16)    -3.75000000E-01  2.50000000E-01  0.00000000E+00       0.04688
    17)    -2.50000000E-01  2.50000000E-01  0.00000000E+00       0.02344
    18)     3.75000000E-01  3.75000000E-01  0.00000000E+00       0.01172
    19)     5.00000000E-01  3.75000000E-01  0.00000000E+00       0.04688
    20)    -3.75000000E-01  3.75000000E-01  0.00000000E+00       0.02344
    21)     5.00000000E-01  5.00000000E-01  0.00000000E+00       0.00586
    22)     3.75000000E-01  2.50000000E-01  1.25000000E-01       0.04688
    23)     5.00000000E-01  2.50000000E-01  1.25000000E-01       0.09375
    24)    -3.75000000E-01  2.50000000E-01  1.25000000E-01       0.04688
    25)     5.00000000E-01  3.75000000E-01  1.25000000E-01       0.04688
    26)    -3.75000000E-01  3.75000000E-01  1.25000000E-01       0.09375
    27)    -2.50000000E-01  3.75000000E-01  1.25000000E-01       0.04688
    28)    -3.75000000E-01  5.00000000E-01  1.25000000E-01       0.02344
    29)    -2.50000000E-01  5.00000000E-01  2.50000000E-01       0.01172

 Together with 48 symmetry operations and time-reversal symmetry 
 yields   512 points in the full Brillouin Zone.


 ==== Q-mesh for screening function ====
 Number of points in the irreducible wedge :    29
 Reduced coordinates and weights : 

     1)     0.00000000E+00  0.00000000E+00  0.00000000E+00       0.00195
     2)     1.25000000E-01  0.00000000E+00  0.00000000E+00       0.01563
     3)     2.50000000E-01  0.00000000E+00  0.00000000E+00       0.01563
     4)     3.75000000E-01  0.00000000E+00  0.00000000E+00       0.01563
     5)     5.00000000E-01  0.00000000E+00  0.00000000E+00       0.00781
     6)     1.25000000E-01  1.25000000E-01  0.00000000E+00       0.01172
     7)     2.50000000E-01  1.25000000E-01  0.00000000E+00       0.04688
     8)     3.75000000E-01  1.25000000E-01  0.00000000E+00       0.04688
     9)     5.00000000E-01  1.25000000E-01  0.00000000E+00       0.04688
    10)    -3.75000000E-01  1.25000000E-01  0.00000000E+00       0.04688
    11)    -2.50000000E-01  1.25000000E-01  0.00000000E+00       0.04688
    12)    -1.25000000E-01  1.25000000E-01  0.00000000E+00       0.02344
    13)     2.50000000E-01  2.50000000E-01  0.00000000E+00       0.01172
    14)     3.75000000E-01  2.50000000E-01  0.00000000E+00       0.04688
    15)     5.00000000E-01  2.50000000E-01  0.00000000E+00       0.04688
    16)    -3.75000000E-01  2.50000000E-01  0.00000000E+00       0.04688
    17)    -2.50000000E-01  2.50000000E-01  0.00000000E+00       0.02344
    18)     3.75000000E-01  3.75000000E-01  0.00000000E+00       0.01172
    19)     5.00000000E-01  3.75000000E-01  0.00000000E+00       0.04688
    20)    -3.75000000E-01  3.75000000E-01  0.00000000E+00       0.02344
    21)     5.00000000E-01  5.00000000E-01  0.00000000E+00       0.00586
    22)     3.75000000E-01  2.50000000E-01  1.25000000E-01       0.04688
    23)     5.00000000E-01  2.50000000E-01  1.25000000E-01       0.09375
    24)    -3.75000000E-01  2.50000000E-01  1.25000000E-01       0.04688
    25)     5.00000000E-01  3.75000000E-01  1.25000000E-01       0.04688
    26)    -3.75000000E-01  3.75000000E-01  1.25000000E-01       0.09375
    27)    -2.50000000E-01  3.75000000E-01  1.25000000E-01       0.04688
    28)    -3.75000000E-01  5.00000000E-01  1.25000000E-01       0.02344
    29)    -2.50000000E-01  5.00000000E-01  2.50000000E-01       0.01172

 Together with 48 symmetry operations and time-reversal symmetry 
 yields   512 points in the full Brillouin Zone.


 setmesh: FFT mesh size selected  =    32x   32x   32
          total number of points  =        32768

 Number of electrons calculated from density =   10.0000; Expected =   10.0000
 average of density, n =  0.091924
 r_s =    1.3745
 omega_plasma =   29.2463 [eV]


 === KS Band Gaps ===
  >>>> For spin  1
   Minimum direct gap =   9.2357 [eV], located at k-point      :   0.0000  0.0000  0.0000
   Fundamental gap    =   9.2357 [eV], Top of valence bands at :   0.0000  0.0000  0.0000
                                       Bottom of conduction at :   0.0000  0.0000  0.0000
 SIGMA fundamental parameters:
 PLASMON POLE MODEL  1
 number of plane-waves for SigmaX                 1363
 number of plane-waves for SigmaC and W            181
 number of plane-waves for wavefunctions          1363
 number of bands                                   480
 number of independent spin polarizations            1
 number of spinorial components                      1
 number of k-points in IBZ                          29
 number of q-points in IBZ                          29
 number of symmetry operations                      48
 number of k-points in BZ                          512
 number of q-points in BZ                          512
 number of frequencies for dSigma/dE                 9
 frequency step for dSigma/dE [eV]                0.25
 number of omega for Sigma on real axis              0
 max omega for Sigma on real axis  [eV]           0.00
 zcut for avoiding poles [eV]                     0.10

 EPSILON^-1 parameters (SCR file):
 dimension of the eps^-1 matrix on file            181
 dimension of the eps^-1 matrix used               181
 number of plane-waves for wavefunctions          1363
 number of bands                                   480
 number of q-points in IBZ                          29
 number of frequencies                               2
 number of real frequencies                          1
 number of imag frequencies                          1

 matrix elements of self-energy operator (all in [eV])

 Perturbative Calculation

--- !SelfEnergy_ee
iteration_state: {dtset: 2, }
kpoint     : [   0.000,    0.000,    0.000, ]
spin       : 1
KS_gap     :    9.236
QP_gap     :   13.658
Delta_QP_KS:    4.423
data: !SigmaeeData |
     Band     E0 <VxcDFT>   SigX SigC(E0)      Z dSigC/dE  Sig(E)    E-E0       E
        1 -41.705 -25.583 -39.720   4.102   0.903  -0.107 -34.649  -9.066 -50.771
        2 -20.819 -22.783 -37.676   9.091   0.779  -0.284 -27.301  -4.518 -25.337
        3  -0.891 -23.080 -30.773   4.182   0.827  -0.210 -25.982  -2.902  -3.793
        4  -0.891 -23.080 -30.773   4.182   0.827  -0.210 -25.982  -2.902  -3.793
        5  -0.891 -23.080 -30.773   4.182   0.827  -0.210 -25.982  -2.902  -3.793
        6   8.344 -11.551  -6.672  -3.171   0.891  -0.123 -10.030   1.521   9.865
        7  23.277 -10.072  -3.106  -4.231   0.881  -0.135  -7.664   2.408  25.686
        8  23.277 -10.072  -3.106  -4.231   0.881  -0.135  -7.664   2.408  25.686
        9  23.277 -10.072  -3.106  -4.231   0.881  -0.135  -7.664   2.408  25.686
...


--- !SelfEnergy_ee
iteration_state: {dtset: 2, }
kpoint     : [   0.500,    0.500,    0.000, ]
spin       : 1
KS_gap     :   15.957
QP_gap     :   21.497
Delta_QP_KS:    5.540
data: !SigmaeeData |
     Band     E0 <VxcDFT>   SigX SigC(E0)      Z dSigC/dE  Sig(E)    E-E0       E
        1 -41.628 -25.705 -39.816   4.087   0.901  -0.109 -34.741  -9.036 -50.664
        2 -20.103 -23.620 -38.486   8.988   0.748  -0.336 -28.019  -4.400 -24.503
        3  -3.931 -18.557 -26.747   4.027   0.831  -0.204 -22.015  -3.458  -7.389
        4  -1.901 -21.597 -29.530   4.164   0.826  -0.210 -24.712  -3.115  -5.015
        5  -1.901 -21.597 -29.530   4.164   0.826  -0.210 -24.712  -3.115  -5.015
        6  14.056 -14.807  -8.537  -3.479   0.869  -0.151 -12.382   2.425  16.481
        7  15.719  -7.626  -2.660  -3.491   0.900  -0.111  -6.299   1.327  17.046
        8  16.761 -10.676  -4.831  -3.716   0.891  -0.122  -8.779   1.897  18.658
...


== END DATASET(S) ==============================================================
================================================================================
  
 -outvars: echo values of variables after computation  --------
            acell      7.5778017929E+00  7.5778017929E+00  7.5778017929E+00 Bohr
              amu      6.94100000E+00  1.89984032E+01
             bdgw           1       8       1       8
           diemac      1.20000000E+01
             ecut      4.00000000E+01 Hartree
          ecuteps      1.20000000E+01 Hartree
         ecutsigx      4.00000000E+01 Hartree
          ecutwfn      4.00000000E+01 Hartree
           etotal1     0.0000000000E+00
           etotal2     0.0000000000E+00
            fcart1     0.0000000000E+00  0.0000000000E+00  0.0000000000E+00
                       0.0000000000E+00  0.0000000000E+00  0.0000000000E+00
            fcart2     0.0000000000E+00  0.0000000000E+00  0.0000000000E+00
                       0.0000000000E+00  0.0000000000E+00  0.0000000000E+00
-          fftalg         312
           getscr1          0
           getscr2         -1
           istwfk        1    0    0    0    1    0    0    0    0    0
                         0    0    0    0    0    0    0    0    0    0
                         1    0    0    0    0    0    0    0    0
              ixc          11
           jdtset        1    2
              kpt      0.00000000E+00  0.00000000E+00  0.00000000E+00
                       1.25000000E-01  0.00000000E+00  0.00000000E+00
                       2.50000000E-01  0.00000000E+00  0.00000000E+00
                       3.75000000E-01  0.00000000E+00  0.00000000E+00
                       5.00000000E-01  0.00000000E+00  0.00000000E+00
                       1.25000000E-01  1.25000000E-01  0.00000000E+00
                       2.50000000E-01  1.25000000E-01  0.00000000E+00
                       3.75000000E-01  1.25000000E-01  0.00000000E+00
                       5.00000000E-01  1.25000000E-01  0.00000000E+00
                      -3.75000000E-01  1.25000000E-01  0.00000000E+00
                      -2.50000000E-01  1.25000000E-01  0.00000000E+00
                      -1.25000000E-01  1.25000000E-01  0.00000000E+00
                       2.50000000E-01  2.50000000E-01  0.00000000E+00
                       3.75000000E-01  2.50000000E-01  0.00000000E+00
                       5.00000000E-01  2.50000000E-01  0.00000000E+00
                      -3.75000000E-01  2.50000000E-01  0.00000000E+00
                      -2.50000000E-01  2.50000000E-01  0.00000000E+00
                       3.75000000E-01  3.75000000E-01  0.00000000E+00
                       5.00000000E-01  3.75000000E-01  0.00000000E+00
                      -3.75000000E-01  3.75000000E-01  0.00000000E+00
                       5.00000000E-01  5.00000000E-01  0.00000000E+00
                       3.75000000E-01  2.50000000E-01  1.25000000E-01
                       5.00000000E-01  2.50000000E-01  1.25000000E-01
                      -3.75000000E-01  2.50000000E-01  1.25000000E-01
                       5.00000000E-01  3.75000000E-01  1.25000000E-01
                      -3.75000000E-01  3.75000000E-01  1.25000000E-01
                      -2.50000000E-01  3.75000000E-01  1.25000000E-01
                      -3.75000000E-01  5.00000000E-01  1.25000000E-01
                      -2.50000000E-01  5.00000000E-01  2.50000000E-01
            kptgw      0.00000000E+00  0.00000000E+00  0.00000000E+00
                       5.00000000E-01  5.00000000E-01  0.00000000E+00
         kptrlatt        8    0    0      0    8    0      0    0    8
          kptrlen      4.28665203E+01
P           mkmem           1
            natom           2
            nband         480
           ndtset           2
            ngfft          32      32      32
             nkpt          29
           nkptgw           2
           npweps         181
          npwsigx        1363
           npwwfn        1363
            nstep          50
             nsym          48
           ntypat           2
              occ      2.000000  2.000000  2.000000  2.000000  2.000000  0.000000
                       0.000000  0.000000  0.000000  0.000000  0.000000  0.000000
                       0.000000  0.000000  0.000000  0.000000  0.000000  0.000000
                       0.000000  0.000000  0.000000  0.000000  0.000000  0.000000
                       0.000000  0.000000  0.000000  0.000000  0.000000  0.000000
                       0.000000  0.000000  0.000000  0.000000  0.000000  0.000000
                       0.000000  0.000000  0.000000  0.000000  0.000000  0.000000
                       0.000000  0.000000  0.000000  0.000000  0.000000  0.000000
                       0.000000  0.000000  0.000000  0.000000  0.000000  0.000000
                       0.000000  0.000000  0.000000  0.000000  0.000000  0.000000
                       0.000000  0.000000  0.000000  0.000000  0.000000  0.000000
                       0.000000  0.000000  0.000000  0.000000  0.000000  0.000000
                       0.000000  0.000000  0.000000  0.000000  0.000000  0.000000
                       0.000000  0.000000  0.000000  0.000000  0.000000  0.000000
                       0.000000  0.000000  0.000000  0.000000  0.000000  0.000000
                       0.000000  0.000000  0.000000  0.000000  0.000000  0.000000
                       0.000000  0.000000  0.000000  0.000000  0.000000  0.000000
                       0.000000  0.000000  0.000000  0.000000  0.000000  0.000000
                       0.000000  0.000000  0.000000  0.000000  0.000000  0.000000
                       0.000000  0.000000  0.000000  0.000000  0.000000  0.000000
                       0.000000  0.000000  0.000000  0.000000  0.000000  0.000000
                       0.000000  0.000000  0.000000  0.000000  0.000000  0.000000
                       0.000000  0.000000  0.000000  0.000000  0.000000  0.000000
                       0.000000  0.000000  0.000000  0.000000  0.000000  0.000000
                       0.000000  0.000000  0.000000  0.000000  0.000000  0.000000
                       0.000000  0.000000  0.000000  0.000000  0.000000  0.000000
                       0.000000  0.000000  0.000000  0.000000  0.000000  0.000000
                       0.000000  0.000000  0.000000  0.000000  0.000000  0.000000
                       0.000000  0.000000  0.000000  0.000000  0.000000  0.000000
                       0.000000  0.000000  0.000000  0.000000  0.000000  0.000000
                       0.000000  0.000000  0.000000  0.000000  0.000000  0.000000
                       0.000000  0.000000  0.000000  0.000000  0.000000  0.000000
                       0.000000  0.000000  0.000000  0.000000  0.000000  0.000000
                       0.000000  0.000000  0.000000  0.000000  0.000000  0.000000
                       0.000000  0.000000  0.000000  0.000000  0.000000  0.000000
                       0.000000  0.000000  0.000000  0.000000  0.000000  0.000000
                       0.000000  0.000000  0.000000  0.000000  0.000000  0.000000
                       0.000000  0.000000  0.000000  0.000000  0.000000  0.000000
                       0.000000  0.000000  0.000000  0.000000  0.000000  0.000000
                       0.000000  0.000000  0.000000  0.000000  0.000000  0.000000
                       0.000000  0.000000  0.000000  0.000000  0.000000  0.000000
                       0.000000  0.000000  0.000000  0.000000  0.000000  0.000000
[...]
           symrel      1  0  0   0  1  0   0  0  1      -1  0  0   0 -1  0   0  0 -1
                       0 -1  1   0 -1  0   1 -1  0       0  1 -1   0  1  0  -1  1  0
                      -1  0  0  -1  0  1  -1  1  0       1  0  0   1  0 -1   1 -1  0
                       0  1 -1   1  0 -1   0  0 -1       0 -1  1  -1  0  1   0  0  1
                      -1  0  0  -1  1  0  -1  0  1       1  0  0   1 -1  0   1  0 -1
                       0 -1  1   1 -1  0   0 -1  0       0  1 -1  -1  1  0   0  1  0
                       1  0  0   0  0  1   0  1  0      -1  0  0   0  0 -1   0 -1  0
                       0  1 -1   0  0 -1   1  0 -1       0 -1  1   0  0  1  -1  0  1
                      -1  0  1  -1  1  0  -1  0  0       1  0 -1   1 -1  0   1  0  0
                       0 -1  0   1 -1  0   0 -1  1       0  1  0  -1  1  0   0  1 -1
                       1  0 -1   0  0 -1   0  1 -1      -1  0  1   0  0  1   0 -1  1
                       0  1  0   0  0  1   1  0  0       0 -1  0   0  0 -1  -1  0  0
                       1  0 -1   0  1 -1   0  0 -1      -1  0  1   0 -1  1   0  0  1
                       0 -1  0   0 -1  1   1 -1  0       0  1  0   0  1 -1  -1  1  0
                      -1  0  1  -1  0  0  -1  1  0       1  0 -1   1  0  0   1 -1  0
                       0  1  0   1  0  0   0  0  1       0 -1  0  -1  0  0   0  0 -1
                       0  0 -1   0  1 -1   1  0 -1       0  0  1   0 -1  1  -1  0  1
                       1 -1  0   0 -1  1   0 -1  0      -1  1  0   0  1 -1   0  1  0
                       0  0  1   1  0  0   0  1  0       0  0 -1  -1  0  0   0 -1  0
                      -1  1  0  -1  0  0  -1  0  1       1 -1  0   1  0  0   1  0 -1
                       0  0  1   0  1  0   1  0  0       0  0 -1   0 -1  0  -1  0  0
                       1 -1  0   0 -1  0   0 -1  1      -1  1  0   0  1  0   0  1 -1
                       0  0 -1   1  0 -1   0  1 -1       0  0  1  -1  0  1   0 -1  1
                      -1  1  0  -1  0  1  -1  0  0       1 -1  0   1  0 -1   1  0  0
           timopt          -1
            typat      1  2
              wtk        0.00195    0.01563    0.01563    0.01563    0.00781    0.01172
                         0.04688    0.04688    0.04688    0.04688    0.04688    0.02344
                         0.01172    0.04688    0.04688    0.04688    0.02344    0.01172
                         0.04688    0.02344    0.00586    0.04688    0.09375    0.04688
                         0.04688    0.09375    0.04688    0.02344    0.01172
           xangst      0.0000000000E+00  0.0000000000E+00  0.0000000000E+00
                       2.0050000000E+00  2.0050000000E+00  2.0050000000E+00
            xcart      0.0000000000E+00  0.0000000000E+00  0.0000000000E+00
                       3.7889008964E+00  3.7889008964E+00  3.7889008964E+00
             xred      0.0000000000E+00  0.0000000000E+00  0.0000000000E+00
                       5.0000000000E-01  5.0000000000E-01  5.0000000000E-01
            znucl        3.00000    9.00000

================================================================================

 Test the timer : 
  a combined call timab(*,1,tsec) + timab(*,2,tsec) is 
- CPU time =    6.0406E-07 sec,    Wall time =    6.0411E-07 sec

- Total cpu        time (s,m,h):       7763.9      129.40      2.157
- Total wall clock time (s,m,h):       7785.8      129.76      2.163
-
- For major independent code sections, cpu and wall times (sec),
-  as well as % of the time and number of calls for node 0
-
-<BEGIN_TIMER mpi_nprocs = 128, omp_nthreads = 1, mpi_rank = 0>
- cpu_time =           60.1, wall_time =           60.9
-
- routine                            cpu     %          wall     %      number of calls Gflops    Speedup Efficacity
-                                                                        (-1=no count)
- sigma/=fourdp                     8.163   0.1         8.377   0.1              1      -1.00        0.97       0.97
- wfd_read_wfk                      1.435   0.0         1.448   0.0              2      -1.00        0.99       0.99
- pspini                            0.506   0.0         0.517   0.0              2      -1.00        0.98       0.98
- abinit(2)                         0.159   0.0         0.168   0.0              1      -1.00        0.94       0.94
- timing timab                      0.118   0.0         0.118   0.0             14      -1.00        1.00       1.00
- invars2                           0.050   0.0         0.050   0.0              2      -1.00        0.99       0.99
- xc:pot/=fourdp                    0.022   0.0         0.022   0.0              3      -1.00        1.00       1.00
- ewald                             0.020   0.0         0.020   0.0              2      -1.00        1.00       1.00
- fourdp                            0.009   0.0         0.043   0.0             34      -1.00        0.21       0.21
- mkffnl                            0.008   0.0         0.008   0.0             29      -1.00        1.00       1.00
- others (145)                      0.011   0.0         0.011   0.0             -1      -1.00        1.00       1.00
-<END_TIMER>
-
- subtotal                         10.502   0.1        10.782   0.1                                  0.97       0.97

- For major independent code sections, cpu and wall times (sec),
- as well as % of the total time and number of calls 

-<BEGIN_TIMER mpi_nprocs = 128, omp_nthreads = 1, mpi_rank = world>
- cpu_time =        7763.9, wall_time =        7785.8
-
- routine                            cpu     %          wall     %      number of calls Gflops    Speedup Efficacity
-                                                                        (-1=no count)
- sigma/=fourdp                  1038.923  13.4      1039.673  13.4            128      -1.00        1.00       1.00
- wfd_read_wfk                    185.110   2.4       185.229   2.4            256      -1.00        1.00       1.00
- pspini                           64.445   0.8        65.038   0.8            256      -1.00        0.99       0.99
- timing timab                     14.671   0.2        14.672   0.2           1792      -1.00        1.00       1.00
- abinit(2)                         8.729   0.1         8.902   0.1            128      -1.00        0.98       0.98
- invars2                           6.388   0.1         6.390   0.1            256      -1.00        1.00       1.00
- xc:pot/=fourdp                    2.770   0.0         2.783   0.0            384      -1.00        1.00       1.00
- ewald                             2.569   0.0         2.570   0.0            256      -1.00        1.00       1.00
- fourdp                            1.852   0.0         5.498   0.1           4352      -1.00        0.34       0.34
- mkffnl                            0.986   0.0         0.980   0.0           3712      -1.00        1.01       1.01
- mkcore                            0.731   0.0         0.731   0.0            256      -1.00        1.00       1.00
- kpgsph                            0.441   0.0         0.440   0.0          38330      -1.00        1.00       1.00
- symrhg(no FFT)                    0.185   0.0         0.186   0.0            256      -1.00        1.00       1.00
- others (142)                      0.000   0.0         0.000   0.0             -1      -1.00        0.00       0.00
-<END_TIMER>

- subtotal                       1327.800  17.1      1333.094  17.1                                  1.00       1.00

 Partitioning of abinit
- abinit                         7763.869 100.0      7785.837 100.0            128                   1.00       1.00
 
- abinit(1)                        24.105   0.3        28.604   0.4            128                   0.84       0.84
- abinit(2)                         8.729   0.1         8.902   0.1            128                   0.98       0.98
- indefo+macroin+invars2m           6.668   0.1         6.670   0.1            128                   1.00       1.00
- abinit(4)                        32.043   0.4        34.025   0.4            128                   0.94       0.94
- abinit(5)                        17.565   0.2        17.595   0.2            128                   1.00       1.00
- driver                         7690.058  99.0      7705.887  99.0            128                   1.00       1.00
- timing timab                     14.671   0.2        14.672   0.2           1792                   1.00       1.00

- subtotal                       7763.869 100.0      7785.837 100.0                                  1.00       1.00

 Partitioning of driver
- driver                         7690.058  99.0      7705.887  99.0            128                   1.00       1.00
 
- driver(bef. select case)          4.420   0.1        10.668   0.1            256                   0.41       0.41
- screening                      6613.711  85.2      6622.477  85.1            128                   1.00       1.00
- sigma                          1038.951  13.4      1039.701  13.4            128                   1.00       1.00
- (other)                          32.594   0.4        32.638   0.4             -1                   1.00       1.00

- subtotal                       7690.058  99.0      7705.887  99.0                                  1.00       1.00

 Partitioning of screening
- screening                      6613.711  85.2      6622.477  85.1            128                   1.00       1.00
 
- screening(init1)                198.082   2.6       199.070   2.6            128                   1.00       1.00
- screening(wfs)                  138.747   1.8       138.892   1.8            128                   1.00       1.00
- screening(1)                      6.711   0.1         6.716   0.1            128                   1.00       1.00
- screening(density)               28.077   0.4        34.206   0.4            128                   0.82       0.82
- screening(2)                      3.564   0.0         3.593   0.0            128                   0.99       0.99
- screening(cchi0q0)               97.354   1.3        97.455   1.3            128                   1.00       1.00
- screening(cchi0)               6109.228  78.7      6110.318  78.5           3584                   1.00       1.00
- screening(q-loop,end)            31.357   0.4        31.565   0.4           3712                   0.99       0.99

- subtotal                       6613.199  85.2      6621.971  85.1                                  1.00       1.00

 Partitioning of sigma
- sigma                          1038.951  13.4      1039.701  13.4            128                   1.00       1.00
 
- sigma(Init1)                      4.363   0.1         4.365   0.1            256                   1.00       1.00
- setup_sigma                      74.289   1.0        74.412   1.0            128                   1.00       1.00
- sigma(rdkss)                     51.772   0.7        51.786   0.7            128                   1.00       1.00
- sigma(Init2)                      2.452   0.0         2.456   0.0            128                   1.00       1.00
- sigma(make_vhxc)                 12.545   0.2        12.546   0.2            128                   1.00       1.00
- sigma(vHxc_me)                    2.219   0.0         2.303   0.0            128                   0.96       0.96
- sigma(hqp_init)                  24.682   0.3        24.686   0.3            128                   1.00       1.00
- sigma(getW)                       8.221   0.1         8.224   0.1            128                   1.00       1.00
- sigma(calc_sigx_me)              81.120   1.0        81.176   1.0            128                   1.00       1.00
- sigma(calc_sigc_me)             775.159  10.0       775.350  10.0            256                   1.00       1.00

- subtotal                       1037.170  13.4      1037.695  13.3                                  1.00       1.00

 Partitioning of calc_sigc_me
- calc_sigc_me                    775.159  10.0       775.350  10.0            256                   1.00       1.00
 
- calc_sigc_me(Init)               20.937   0.3        20.956   0.3            256                   1.00       1.00
- calc_sigc_me(loop)              694.213   8.9       694.334   8.9          11264                   1.00       1.00
- calc_sigc_me(xmpi_sum)           58.116   0.7        58.159   0.7            256                   1.00       1.00

- subtotal                        775.110  10.0       775.306  10.0                                  1.00       1.00

 Partitioning of  fourdp (upwards partitioning)
- fourdp                            1.852   0.0         5.498   0.1           4352                   0.34       0.34
 
- fourdp%(other)                    1.803   0.0         5.450   0.1           4096                   0.33       0.33

- subtotal                          1.852   0.0         5.498   0.1                                  0.34       0.34
-
-Synchronisation (=leave_test) and MPI calls 
- communic.MPI                      1.486   0.0         1.504   0.0            128                   0.99       0.99
-
- subtotal                          0.000   0.0         0.000   0.0                                  0.00       0.00

 Additional information
- timana(1)                         0.126   0.0         0.129   0.0            128                   0.98       0.98
- total timab                      15.196   0.2        15.197   0.2       25796986                   1.00       1.00
- xc:fourdp                         0.677   0.0         0.674   0.0           3072                   1.00       1.00
- calc_sigc_me(1)             2443207.999******  25702310.513******          42240                   0.10       0.10
- calc_sigc_me(rho_tw_g)           63.630   0.8        63.662   0.8          42240                   1.00       1.00
- calc_sigc_me(2)                 627.356   8.1       627.600   8.1         351840                   1.00       1.00
- calc_sigc_me(sigma_me)            0.412   0.0         0.413   0.0         351840                   1.00       1.00
- cchi0                          6109.112  78.7      6110.218  78.5           3584                   1.00       1.00

 timana : in multi dataset mode, the more detailed analysis is not done.

================================================================================

 Suggested references for the acknowledgment of ABINIT usage.

 The users of ABINIT have little formal obligations with respect to the ABINIT group
 (those specified in the GNU General Public License, http://www.gnu.org/copyleft/gpl.txt).
 However, it is common practice in the scientific literature,
 to acknowledge the efforts of people that have made the research possible.
 In this spirit, please find below suggested citations of work written by ABINIT developers,
 corresponding to implementations inside of ABINIT that you have used in the present run.
 Note also that it will be of great value to readers of publications presenting these results,
 to read papers enabling them to understand the theoretical formalism and details
 of the ABINIT implementation.
 For information on why they are suggested, see also https://docs.abinit.org/theory/acknowledgments.
-
- [1] The Abinit project: Impact, environment and recent developments.
- Computer Phys. Comm. 248, 107042 (2020).
- X.Gonze, B. Amadon, G. Antonius, F.Arnardi, L.Baguet, J.-M.Beuken,
- J.Bieder, F.Bottin, J.Bouchet, E.Bousquet, N.Brouwer, F.Bruneval,
- G.Brunin, T.Cavignac, J.-B. Charraud, Wei Chen, M.Cote, S.Cottenier,
- J.Denier, G.Geneste, Ph.Ghosez, M.Giantomassi, Y.Gillet, O.Gingras,
- D.R.Hamann, G.Hautier, Xu He, N.Helbig, N.Holzwarth, Y.Jia, F.Jollet,
- W.Lafargue-Dit-Hauret, K.Lejaeghere, M.A.L.Marques, A.Martin, C.Martins,
- H.P.C. Miranda, F.Naccarato, K. Persson, G.Petretto, V.Planes, Y.Pouillon,
- S.Prokhorenko, F.Ricci, G.-M.Rignanese, A.H.Romero, M.M.Schmitt, M.Torrent,
- M.J.van Setten, B.Van Troeye, M.J.Verstraete, G.Zerah and J.W.Zwanzig
- Comment: the fifth generic paper describing the ABINIT project.
- Note that a version of this paper, that is not formatted for Computer Phys. Comm. 
- is available at https://www.abinit.org/sites/default/files/ABINIT20.pdf .
- The licence allows the authors to put it on the Web.
- DOI and bibtex: see https://docs.abinit.org/theory/bibliography/#gonze2020
-
- [2] Optimized norm-conserving Vanderbilt pseudopotentials.
- D.R. Hamann, Phys. Rev. B 88, 085117 (2013).
- Comment: Some pseudopotential generated using the ONCVPSP code were used.
- DOI and bibtex: see https://docs.abinit.org/theory/bibliography/#hamann2013
-
- [3] ABINIT: Overview, and focus on selected capabilities
- J. Chem. Phys. 152, 124102 (2020).
- A. Romero, D.C. Allan, B. Amadon, G. Antonius, T. Applencourt, L.Baguet,
- J.Bieder, F.Bottin, J.Bouchet, E.Bousquet, F.Bruneval,
- G.Brunin, D.Caliste, M.Cote,
- J.Denier, C. Dreyer, Ph.Ghosez, M.Giantomassi, Y.Gillet, O.Gingras,
- D.R.Hamann, G.Hautier, F.Jollet, G. Jomard,
- A.Martin, 
- H.P.C. Miranda, F.Naccarato, G.Petretto, N.A. Pike, V.Planes,
- S.Prokhorenko, T. Rangel, F.Ricci, G.-M.Rignanese, M.Royo, M.Stengel, M.Torrent,
- M.J.van Setten, B.Van Troeye, M.J.Verstraete, J.Wiktor, J.W.Zwanziger, and X.Gonze.
- Comment: a global overview of ABINIT, with focus on selected capabilities .
- Note that a version of this paper, that is not formatted for J. Chem. Phys 
- is available at https://www.abinit.org/sites/default/files/ABINIT20_JPC.pdf .
- The licence allows the authors to put it on the Web.
- DOI and bibtex: see https://docs.abinit.org/theory/bibliography/#romero2020
-
- [4] Recent developments in the ABINIT software package.
- Computer Phys. Comm. 205, 106 (2016).
- X.Gonze, F.Jollet, F.Abreu Araujo, D.Adams, B.Amadon, T.Applencourt,
- C.Audouze, J.-M.Beuken, J.Bieder, A.Bokhanchuk, E.Bousquet, F.Bruneval
- D.Caliste, M.Cote, F.Dahm, F.Da Pieve, M.Delaveau, M.Di Gennaro,
- B.Dorado, C.Espejo, G.Geneste, L.Genovese, A.Gerossier, M.Giantomassi,
- Y.Gillet, D.R.Hamann, L.He, G.Jomard, J.Laflamme Janssen, S.Le Roux,
- A.Levitt, A.Lherbier, F.Liu, I.Lukacevic, A.Martin, C.Martins,
- M.J.T.Oliveira, S.Ponce, Y.Pouillon, T.Rangel, G.-M.Rignanese,
- A.H.Romero, B.Rousseau, O.Rubel, A.A.Shukri, M.Stankovski, M.Torrent,
- M.J.Van Setten, B.Van Troeye, M.J.Verstraete, D.Waroquier, J.Wiktor,
- B.Xu, A.Zhou, J.W.Zwanziger.
- Comment: the fourth generic paper describing the ABINIT project.
- Note that a version of this paper, that is not formatted for Computer Phys. Comm. 
- is available at https://www.abinit.org/sites/default/files/ABINIT16.pdf .
- The licence allows the authors to put it on the Web.
- DOI and bibtex: see https://docs.abinit.org/theory/bibliography/#gonze2016
-
- And optionally:
-
- [5] ABINIT: First-principles approach of materials and nanosystem properties.
- Computer Phys. Comm. 180, 2582-2615 (2009).
- X. Gonze, B. Amadon, P.-M. Anglade, J.-M. Beuken, F. Bottin, P. Boulanger, F. Bruneval,
- D. Caliste, R. Caracas, M. Cote, T. Deutsch, L. Genovese, Ph. Ghosez, M. Giantomassi
- S. Goedecker, D.R. Hamann, P. Hermet, F. Jollet, G. Jomard, S. Leroux, M. Mancini, S. Mazevet,
- M.J.T. Oliveira, G. Onida, Y. Pouillon, T. Rangel, G.-M. Rignanese, D. Sangalli, R. Shaltaf,
- M. Torrent, M.J. Verstraete, G. Zerah, J.W. Zwanziger
- Comment: the third generic paper describing the ABINIT project.
- Note that a version of this paper, that is not formatted for Computer Phys. Comm. 
- is available at https://www.abinit.org/sites/default/files/ABINIT_CPC_v10.pdf .
- The licence allows the authors to put it on the Web.
- DOI and bibtex: see https://docs.abinit.org/theory/bibliography/#gonze2009
-
- Proc.   0 individual time (sec): cpu=         60.1  wall=         60.9

================================================================================

 Calculation completed.
.Delivered   0 WARNINGs and   0 COMMENTs to log file.
+Overall time at end (sec) : cpu=       7768.8  wall=       7790.8
