
.Version 9.9.2 of ABINIT 
.(MPI version, prepared for a x86_64_linux_gnu11.2 computer) 

.Copyright (C) 1998-2022 ABINIT group . 
 ABINIT comes with ABSOLUTELY NO WARRANTY.
 It is free software, and you are welcome to redistribute it
 under certain conditions (GNU General Public License,
 see ~abinit/COPYING or http://www.gnu.org/copyleft/gpl.txt).

 ABINIT is a project of the Universite Catholique de Louvain,
 Corning Inc. and other collaborators, see ~abinit/doc/developers/contributors.txt .
 Please read https://docs.abinit.org/theory/acknowledgments for suggested
 acknowledgments of the ABINIT effort.
 For more information, see https://www.abinit.org .

.Starting date : Fri 17 Feb 2023.
- ( at 10h05 )
  
- input  file    -> run.abi
- output file    -> run.abo
- root for input  files -> ../indata_ac
- root for output files -> outdata_ac


 DATASET    1 : space group Fm -3 m (#225); Bravais cF (face-center cubic)
================================================================================
 Values of the parameters that define the memory need for DATASET  1.
     intxc =       0    ionmov =       0      iscf =       7    lmnmax =       5
     lnmax =       5     mgfft =      36  mpssoang =       3    mqgrid =    3001
     natom =       2  nloc_mem =       1    nspden =       1   nspinor =       1
    nsppol =       1      nsym =      48    n1xccc =    2501    ntypat =       2
    occopt =       1   xclevel =       2
-    mband =         480        mffmem =           1         mkmem =           1
       mpw =        1588          nfft =       46656          nkpt =          29
================================================================================
P This job should need less than                      34.905 Mbytes of memory.
  Rough estimation (10% accuracy) of disk space for files :
_ WF disk file :    337.297 Mbytes ; DEN or POT disk file :      0.358 Mbytes.
================================================================================


 DATASET    2 : space group Fm -3 m (#225); Bravais cF (face-center cubic)
================================================================================
 Values of the parameters that define the memory need for DATASET  2.
     intxc =       0    ionmov =       0      iscf =       7    lmnmax =       5
     lnmax =       5     mgfft =      36  mpssoang =       3    mqgrid =    3001
     natom =       2  nloc_mem =       1    nspden =       1   nspinor =       1
    nsppol =       1      nsym =      48    n1xccc =    2501    ntypat =       2
    occopt =       1   xclevel =       2
-    mband =         480        mffmem =           1         mkmem =           1
       mpw =        1588          nfft =       46656          nkpt =          29
================================================================================
P This job should need less than                      34.905 Mbytes of memory.
  Rough estimation (10% accuracy) of disk space for files :
_ WF disk file :    337.297 Mbytes ; DEN or POT disk file :      0.358 Mbytes.
================================================================================

--------------------------------------------------------------------------------
------------- Echo of variables that govern the present computation ------------
--------------------------------------------------------------------------------
-
- outvars: echo of selected default values                                      
-   iomode0 =  0 , fftalg0 =312 , wfoptalg0 =  0
-
- outvars: echo of global parameters not present in the input file              
-  max_nthreads =    0
-
 -outvars: echo values of preprocessed input variables --------
            acell      8.0364717690E+00  8.0364717690E+00  8.0364717690E+00 Bohr
              amu      6.94100000E+00  1.89984032E+01
             bdgw           1       8       1       8
           diemac      1.20000000E+01
             ecut      4.00000000E+01 Hartree
          ecuteps      1.20000000E+01 Hartree
         ecutsigx      4.00000000E+01 Hartree
          ecutwfn      4.00000000E+01 Hartree
-          fftalg         312
           getscr1          0
           getscr2         -1
           istwfk        1    0    0    0    1    0    0    0    0    0
                         0    0    0    0    0    0    0    0    0    0
                         1    0    0    0    0    0    0    0    0
              ixc          11
           jdtset        1    2
              kpt      0.00000000E+00  0.00000000E+00  0.00000000E+00
                       1.25000000E-01  0.00000000E+00  0.00000000E+00
                       2.50000000E-01  0.00000000E+00  0.00000000E+00
                       3.75000000E-01  0.00000000E+00  0.00000000E+00
                       5.00000000E-01  0.00000000E+00  0.00000000E+00
                       1.25000000E-01  1.25000000E-01  0.00000000E+00
                       2.50000000E-01  1.25000000E-01  0.00000000E+00
                       3.75000000E-01  1.25000000E-01  0.00000000E+00
                       5.00000000E-01  1.25000000E-01  0.00000000E+00
                      -3.75000000E-01  1.25000000E-01  0.00000000E+00
                      -2.50000000E-01  1.25000000E-01  0.00000000E+00
                      -1.25000000E-01  1.25000000E-01  0.00000000E+00
                       2.50000000E-01  2.50000000E-01  0.00000000E+00
                       3.75000000E-01  2.50000000E-01  0.00000000E+00
                       5.00000000E-01  2.50000000E-01  0.00000000E+00
                      -3.75000000E-01  2.50000000E-01  0.00000000E+00
                      -2.50000000E-01  2.50000000E-01  0.00000000E+00
                       3.75000000E-01  3.75000000E-01  0.00000000E+00
                       5.00000000E-01  3.75000000E-01  0.00000000E+00
                      -3.75000000E-01  3.75000000E-01  0.00000000E+00
                       5.00000000E-01  5.00000000E-01  0.00000000E+00
                       3.75000000E-01  2.50000000E-01  1.25000000E-01
                       5.00000000E-01  2.50000000E-01  1.25000000E-01
                      -3.75000000E-01  2.50000000E-01  1.25000000E-01
                       5.00000000E-01  3.75000000E-01  1.25000000E-01
                      -3.75000000E-01  3.75000000E-01  1.25000000E-01
                      -2.50000000E-01  3.75000000E-01  1.25000000E-01
                      -3.75000000E-01  5.00000000E-01  1.25000000E-01
                      -2.50000000E-01  5.00000000E-01  2.50000000E-01
            kptgw      0.00000000E+00  0.00000000E+00  0.00000000E+00
                       5.00000000E-01  5.00000000E-01  0.00000000E+00
         kptrlatt        8    0    0      0    8    0      0    0    8
          kptrlen      4.54611495E+01
P           mkmem           1
            natom           2
            nband         480
           ndtset           2
            ngfft          36      36      36
             nkpt          29
           nkptgw           2
           npweps         259
          npwsigx        1471
           npwwfn        1471
            nstep          50
             nsym          48
           ntypat           2
              occ      2.000000  2.000000  2.000000  2.000000  2.000000  0.000000
                       0.000000  0.000000  0.000000  0.000000  0.000000  0.000000
                       0.000000  0.000000  0.000000  0.000000  0.000000  0.000000
                       0.000000  0.000000  0.000000  0.000000  0.000000  0.000000
                       0.000000  0.000000  0.000000  0.000000  0.000000  0.000000
                       0.000000  0.000000  0.000000  0.000000  0.000000  0.000000
                       0.000000  0.000000  0.000000  0.000000  0.000000  0.000000
                       0.000000  0.000000  0.000000  0.000000  0.000000  0.000000
                       0.000000  0.000000  0.000000  0.000000  0.000000  0.000000
                       0.000000  0.000000  0.000000  0.000000  0.000000  0.000000
                       0.000000  0.000000  0.000000  0.000000  0.000000  0.000000
                       0.000000  0.000000  0.000000  0.000000  0.000000  0.000000
                       0.000000  0.000000  0.000000  0.000000  0.000000  0.000000
                       0.000000  0.000000  0.000000  0.000000  0.000000  0.000000
                       0.000000  0.000000  0.000000  0.000000  0.000000  0.000000
                       0.000000  0.000000  0.000000  0.000000  0.000000  0.000000
                       0.000000  0.000000  0.000000  0.000000  0.000000  0.000000
                       0.000000  0.000000  0.000000  0.000000  0.000000  0.000000
                       0.000000  0.000000  0.000000  0.000000  0.000000  0.000000
                       0.000000  0.000000  0.000000  0.000000  0.000000  0.000000
                       0.000000  0.000000  0.000000  0.000000  0.000000  0.000000
                       0.000000  0.000000  0.000000  0.000000  0.000000  0.000000
                       0.000000  0.000000  0.000000  0.000000  0.000000  0.000000
                       0.000000  0.000000  0.000000  0.000000  0.000000  0.000000
                       0.000000  0.000000  0.000000  0.000000  0.000000  0.000000
                       0.000000  0.000000  0.000000  0.000000  0.000000  0.000000
                       0.000000  0.000000  0.000000  0.000000  0.000000  0.000000
                       0.000000  0.000000  0.000000  0.000000  0.000000  0.000000
                       0.000000  0.000000  0.000000  0.000000  0.000000  0.000000
                       0.000000  0.000000  0.000000  0.000000  0.000000  0.000000
                       0.000000  0.000000  0.000000  0.000000  0.000000  0.000000
                       0.000000  0.000000  0.000000  0.000000  0.000000  0.000000
                       0.000000  0.000000  0.000000  0.000000  0.000000  0.000000
                       0.000000  0.000000  0.000000  0.000000  0.000000  0.000000
                       0.000000  0.000000  0.000000  0.000000  0.000000  0.000000
                       0.000000  0.000000  0.000000  0.000000  0.000000  0.000000
                       0.000000  0.000000  0.000000  0.000000  0.000000  0.000000
                       0.000000  0.000000  0.000000  0.000000  0.000000  0.000000
                       0.000000  0.000000  0.000000  0.000000  0.000000  0.000000
                       0.000000  0.000000  0.000000  0.000000  0.000000  0.000000
                       0.000000  0.000000  0.000000  0.000000  0.000000  0.000000
                       0.000000  0.000000  0.000000  0.000000  0.000000  0.000000
                       0.000000  0.000000  0.000000  0.000000  0.000000  0.000000
                       0.000000  0.000000  0.000000  0.000000  0.000000  0.000000
                       0.000000  0.000000  0.000000  0.000000  0.000000  0.000000
                       0.000000  0.000000  0.000000  0.000000  0.000000  0.000000
                       0.000000  0.000000  0.000000  0.000000  0.000000  0.000000
                       0.000000  0.000000  0.000000  0.000000  0.000000  0.000000
                       0.000000  0.000000  0.000000  0.000000  0.000000  0.000000
                       0.000000  0.000000  0.000000  0.000000  0.000000  0.000000
                       0.000000  0.000000  0.000000  0.000000  0.000000  0.000000
                       0.000000  0.000000  0.000000  0.000000  0.000000  0.000000
                       0.000000  0.000000  0.000000  0.000000  0.000000  0.000000
                       0.000000  0.000000  0.000000  0.000000  0.000000  0.000000
                       0.000000  0.000000  0.000000  0.000000  0.000000  0.000000
                       0.000000  0.000000  0.000000  0.000000  0.000000  0.000000
                       0.000000  0.000000  0.000000  0.000000  0.000000  0.000000
                       0.000000  0.000000  0.000000  0.000000  0.000000  0.000000
                       0.000000  0.000000  0.000000  0.000000  0.000000  0.000000
                       0.000000  0.000000  0.000000  0.000000  0.000000  0.000000
                       0.000000  0.000000  0.000000  0.000000  0.000000  0.000000
                       0.000000  0.000000  0.000000  0.000000  0.000000  0.000000
                       0.000000  0.000000  0.000000  0.000000  0.000000  0.000000
                       0.000000  0.000000  0.000000  0.000000  0.000000  0.000000
                       0.000000  0.000000  0.000000  0.000000  0.000000  0.000000
                       0.000000  0.000000  0.000000  0.000000  0.000000  0.000000
                       0.000000  0.000000  0.000000  0.000000  0.000000  0.000000
                       0.000000  0.000000  0.000000  0.000000  0.000000  0.000000
                       0.000000  0.000000  0.000000  0.000000  0.000000  0.000000
                       0.000000  0.000000  0.000000  0.000000  0.000000  0.000000
                       0.000000  0.000000  0.000000  0.000000  0.000000  0.000000
                       0.000000  0.000000  0.000000  0.000000  0.000000  0.000000
                       0.000000  0.000000  0.000000  0.000000  0.000000  0.000000
                       0.000000  0.000000  0.000000  0.000000  0.000000  0.000000
                       0.000000  0.000000  0.000000  0.000000  0.000000  0.000000
                       0.000000  0.000000  0.000000  0.000000  0.000000  0.000000
                       0.000000  0.000000  0.000000  0.000000  0.000000  0.000000
                       0.000000  0.000000  0.000000  0.000000  0.000000  0.000000
                       0.000000  0.000000  0.000000  0.000000  0.000000  0.000000
                       0.000000  0.000000  0.000000  0.000000  0.000000  0.000000
        optdriver1          3
        optdriver2          4
            rprim      0.0000000000E+00  5.0000000000E-01  5.0000000000E-01
                       5.0000000000E-01  0.0000000000E+00  5.0000000000E-01
                       5.0000000000E-01  5.0000000000E-01  0.0000000000E+00
          spgroup         225
           symrel      1  0  0   0  1  0   0  0  1      -1  0  0   0 -1  0   0  0 -1
                       0 -1  1   0 -1  0   1 -1  0       0  1 -1   0  1  0  -1  1  0
                      -1  0  0  -1  0  1  -1  1  0       1  0  0   1  0 -1   1 -1  0
                       0  1 -1   1  0 -1   0  0 -1       0 -1  1  -1  0  1   0  0  1
                      -1  0  0  -1  1  0  -1  0  1       1  0  0   1 -1  0   1  0 -1
                       0 -1  1   1 -1  0   0 -1  0       0  1 -1  -1  1  0   0  1  0
                       1  0  0   0  0  1   0  1  0      -1  0  0   0  0 -1   0 -1  0
                       0  1 -1   0  0 -1   1  0 -1       0 -1  1   0  0  1  -1  0  1
                      -1  0  1  -1  1  0  -1  0  0       1  0 -1   1 -1  0   1  0  0
                       0 -1  0   1 -1  0   0 -1  1       0  1  0  -1  1  0   0  1 -1
                       1  0 -1   0  0 -1   0  1 -1      -1  0  1   0  0  1   0 -1  1
                       0  1  0   0  0  1   1  0  0       0 -1  0   0  0 -1  -1  0  0
                       1  0 -1   0  1 -1   0  0 -1      -1  0  1   0 -1  1   0  0  1
                       0 -1  0   0 -1  1   1 -1  0       0  1  0   0  1 -1  -1  1  0
                      -1  0  1  -1  0  0  -1  1  0       1  0 -1   1  0  0   1 -1  0
                       0  1  0   1  0  0   0  0  1       0 -1  0  -1  0  0   0  0 -1
                       0  0 -1   0  1 -1   1  0 -1       0  0  1   0 -1  1  -1  0  1
                       1 -1  0   0 -1  1   0 -1  0      -1  1  0   0  1 -1   0  1  0
                       0  0  1   1  0  0   0  1  0       0  0 -1  -1  0  0   0 -1  0
                      -1  1  0  -1  0  0  -1  0  1       1 -1  0   1  0  0   1  0 -1
                       0  0  1   0  1  0   1  0  0       0  0 -1   0 -1  0  -1  0  0
                       1 -1  0   0 -1  0   0 -1  1      -1  1  0   0  1  0   0  1 -1
                       0  0 -1   1  0 -1   0  1 -1       0  0  1  -1  0  1   0 -1  1
                      -1  1  0  -1  0  1  -1  0  0       1 -1  0   1  0 -1   1  0  0
           timopt          -1
            typat      1  2
              wtk        0.00195    0.01563    0.01563    0.01563    0.00781    0.01172
                         0.04688    0.04688    0.04688    0.04688    0.04688    0.02344
                         0.01172    0.04688    0.04688    0.04688    0.02344    0.01172
                         0.04688    0.02344    0.00586    0.04688    0.09375    0.04688
                         0.04688    0.09375    0.04688    0.02344    0.01172
           xangst      0.0000000000E+00  0.0000000000E+00  0.0000000000E+00
                       2.1263588488E+00  2.1263588488E+00  2.1263588488E+00
            xcart      0.0000000000E+00  0.0000000000E+00  0.0000000000E+00
                       4.0182358845E+00  4.0182358845E+00  4.0182358845E+00
             xred      0.0000000000E+00  0.0000000000E+00  0.0000000000E+00
                       5.0000000000E-01  5.0000000000E-01  5.0000000000E-01
            znucl        3.00000    9.00000

================================================================================

 chkinp: Checking input parameters for consistency, jdtset=   1.

 chkinp: Checking input parameters for consistency, jdtset=   2.

================================================================================
== DATASET  1 ==================================================================
-   mpi_nproc: 128, omp_nthreads: -1 (-1 if OMP is not activated)


--- !DatasetInfo
iteration_state: {dtset: 1, }
dimensions: {natom: 2, nkpt: 29, mband: 480, nsppol: 1, nspinor: 1, nspden: 1, mpw: 1588, }
cutoff_energies: {ecut:  40.0, pawecutdg:  -1.0, }
electrons: {nelect:   1.00000000E+01, charge:   0.00000000E+00, occopt:   1.00000000E+00, tsmear:   1.00000000E-02, }
meta: {optdriver: 3, gwcalctyp: 0, }
...

 mkfilename: getwfk from: ../outdata_gs_DS2_WFK

 Exchange-correlation functional for the present dataset will be:
  GGA: Perdew-Burke-Ernzerhof functional - ixc=11
 Citation for XC functional:
  J.P.Perdew, K.Burke, M.Ernzerhof, PRL 77, 3865 (1996)

 SCREENING: Calculation of the susceptibility and dielectric matrices 

 Based on a program developped by R.W. Godby, V. Olevano, G. Onida, and L. Reining.
 Incorporated in ABINIT by V. Olevano, G.-M. Rignanese, and M. Torrent.
.Using single precision arithmetic ; gwpc =  4

 Real(R)+Recip(G) space primitive vectors, cartesian coordinates (Bohr,Bohr^-1):
 R(1)=  0.0000000  4.0182359  4.0182359  G(1)= -0.1244327  0.1244327  0.1244327
 R(2)=  4.0182359  0.0000000  4.0182359  G(2)=  0.1244327 -0.1244327  0.1244327
 R(3)=  4.0182359  4.0182359  0.0000000  G(3)=  0.1244327  0.1244327 -0.1244327
 Unit cell volume ucvol=  1.2975864E+02 bohr^3
 Angles (23,13,12)=  6.00000000E+01  6.00000000E+01  6.00000000E+01 degrees

--- Pseudopotential description ------------------------------------------------
- pspini: atom type   1  psp file is ../Li.psp8
- pspatm: opening atomic psp file    ../Li.psp8
- Li    ONCVPSP-3.2.3.1  r_core=   1.40824   1.10935
-  3.00000   3.00000    170503                znucl, zion, pspdat
    8   11    1    4       400   0.00000      pspcod,pspxc,lmax,lloc,mmax,r2well
    3.99000000000000    0.00000000000000    0.00000000000000   rchrg,fchrg,qchrg
     nproj     2     2
     extension_switch     1
  pspatm : epsatm=    2.74345787
         --- l  ekb(1:nproj) -->
             0   -4.951544   -1.544797
             1   -2.250662   -0.474685
 pspatm: atomic psp has been read  and splines computed

- pspini: atom type   2  psp file is ../F.psp8
- pspatm: opening atomic psp file    ../F.psp8
- F     ONCVPSP-3.2.3.1  r_core=   1.30942   1.45782   1.60379
-  9.00000   7.00000    170504                znucl, zion, pspdat
    8   11    2    4       600   0.00000      pspcod,pspxc,lmax,lloc,mmax,r2well
    5.99000000000000    2.50000000000000    0.00000000000000   rchrg,fchrg,qchrg
     nproj     2     2     1
     extension_switch     1
  pspatm : epsatm=    4.87626060
         --- l  ekb(1:nproj) -->
             0    6.519403    1.070094
             1   -3.955629   -1.291931
             2   -2.441503
 pspatm: atomic psp has been read  and splines computed

   7.61971847E+01                                ecore*ucvol(ha*bohr**3)
--------------------------------------------------------------------------------

 ==== K-mesh for the wavefunctions ====
 Number of points in the irreducible wedge :    29
 Reduced coordinates and weights : 

     1)     0.00000000E+00  0.00000000E+00  0.00000000E+00       0.00195
     2)     1.25000000E-01  0.00000000E+00  0.00000000E+00       0.01563
     3)     2.50000000E-01  0.00000000E+00  0.00000000E+00       0.01563
     4)     3.75000000E-01  0.00000000E+00  0.00000000E+00       0.01563
     5)     5.00000000E-01  0.00000000E+00  0.00000000E+00       0.00781
     6)     1.25000000E-01  1.25000000E-01  0.00000000E+00       0.01172
     7)     2.50000000E-01  1.25000000E-01  0.00000000E+00       0.04688
     8)     3.75000000E-01  1.25000000E-01  0.00000000E+00       0.04688
     9)     5.00000000E-01  1.25000000E-01  0.00000000E+00       0.04688
    10)    -3.75000000E-01  1.25000000E-01  0.00000000E+00       0.04688
    11)    -2.50000000E-01  1.25000000E-01  0.00000000E+00       0.04688
    12)    -1.25000000E-01  1.25000000E-01  0.00000000E+00       0.02344
    13)     2.50000000E-01  2.50000000E-01  0.00000000E+00       0.01172
    14)     3.75000000E-01  2.50000000E-01  0.00000000E+00       0.04688
    15)     5.00000000E-01  2.50000000E-01  0.00000000E+00       0.04688
    16)    -3.75000000E-01  2.50000000E-01  0.00000000E+00       0.04688
    17)    -2.50000000E-01  2.50000000E-01  0.00000000E+00       0.02344
    18)     3.75000000E-01  3.75000000E-01  0.00000000E+00       0.01172
    19)     5.00000000E-01  3.75000000E-01  0.00000000E+00       0.04688
    20)    -3.75000000E-01  3.75000000E-01  0.00000000E+00       0.02344
    21)     5.00000000E-01  5.00000000E-01  0.00000000E+00       0.00586
    22)     3.75000000E-01  2.50000000E-01  1.25000000E-01       0.04688
    23)     5.00000000E-01  2.50000000E-01  1.25000000E-01       0.09375
    24)    -3.75000000E-01  2.50000000E-01  1.25000000E-01       0.04688
    25)     5.00000000E-01  3.75000000E-01  1.25000000E-01       0.04688
    26)    -3.75000000E-01  3.75000000E-01  1.25000000E-01       0.09375
    27)    -2.50000000E-01  3.75000000E-01  1.25000000E-01       0.04688
    28)    -3.75000000E-01  5.00000000E-01  1.25000000E-01       0.02344
    29)    -2.50000000E-01  5.00000000E-01  2.50000000E-01       0.01172

 Together with 48 symmetry operations and time-reversal symmetry 
 yields   512 points in the full Brillouin Zone.


 ==== Q-mesh for the screening function ====
 Number of points in the irreducible wedge :    29
 Reduced coordinates and weights : 

     1)     0.00000000E+00  0.00000000E+00  0.00000000E+00       0.00195
     2)     1.25000000E-01  0.00000000E+00  0.00000000E+00       0.01563
     3)     2.50000000E-01  0.00000000E+00  0.00000000E+00       0.01563
     4)     3.75000000E-01  0.00000000E+00  0.00000000E+00       0.01563
     5)     5.00000000E-01  0.00000000E+00  0.00000000E+00       0.00781
     6)     1.25000000E-01  1.25000000E-01  0.00000000E+00       0.01172
     7)     2.50000000E-01  1.25000000E-01  0.00000000E+00       0.04688
     8)     3.75000000E-01  1.25000000E-01  0.00000000E+00       0.04688
     9)     5.00000000E-01  1.25000000E-01  0.00000000E+00       0.04688
    10)    -3.75000000E-01  1.25000000E-01  0.00000000E+00       0.04688
    11)    -2.50000000E-01  1.25000000E-01  0.00000000E+00       0.04688
    12)    -1.25000000E-01  1.25000000E-01  0.00000000E+00       0.02344
    13)     2.50000000E-01  2.50000000E-01  0.00000000E+00       0.01172
    14)     3.75000000E-01  2.50000000E-01  0.00000000E+00       0.04688
    15)     5.00000000E-01  2.50000000E-01  0.00000000E+00       0.04688
    16)    -3.75000000E-01  2.50000000E-01  0.00000000E+00       0.04688
    17)    -2.50000000E-01  2.50000000E-01  0.00000000E+00       0.02344
    18)     3.75000000E-01  3.75000000E-01  0.00000000E+00       0.01172
    19)     5.00000000E-01  3.75000000E-01  0.00000000E+00       0.04688
    20)    -3.75000000E-01  3.75000000E-01  0.00000000E+00       0.02344
    21)     5.00000000E-01  5.00000000E-01  0.00000000E+00       0.00586
    22)     3.75000000E-01  2.50000000E-01  1.25000000E-01       0.04688
    23)     5.00000000E-01  2.50000000E-01  1.25000000E-01       0.09375
    24)    -3.75000000E-01  2.50000000E-01  1.25000000E-01       0.04688
    25)     5.00000000E-01  3.75000000E-01  1.25000000E-01       0.04688
    26)    -3.75000000E-01  3.75000000E-01  1.25000000E-01       0.09375
    27)    -2.50000000E-01  3.75000000E-01  1.25000000E-01       0.04688
    28)    -3.75000000E-01  5.00000000E-01  1.25000000E-01       0.02344
    29)    -2.50000000E-01  5.00000000E-01  2.50000000E-01       0.01172

 Together with 48 symmetry operations and time-reversal symmetry 
 yields   512 points in the full Brillouin Zone.


 setmesh: FFT mesh size selected  =    25x   25x   25
          total number of points  =        15625


- screening: taking advantage of time-reversal symmetry 
- Maximum band index for partially occupied states nbvw = 5
- Remaining bands to be divided among processors   nbcw = 475
- Number of bands treated by each node ~3

 Number of electrons calculated from density =   10.0000; Expected =   10.0000
 average of density, n =  0.077066
 r_s =    1.4577
 omega_plasma =   26.7786 [eV]


 calculating chi0 at frequencies [eV] :
  1    0.000000E+00    0.000000E+00
  2    0.000000E+00    2.677857E+01


--------------------------------------------------------------------------------
  q-point number  1        q = ( 0.000000, 0.000000, 0.000000) [r.l.u.]
--------------------------------------------------------------------------------
  chi0(G,G') at the    1 th omega   0.0000   0.0000 [eV]
       1       2       3       4       5       6       7       8       9
    1  -0.000  -0.000   0.000   0.000  -0.000  -0.000   0.000   0.000  -0.000
        0.000  -0.000   0.000   0.000  -0.000  -0.000   0.000   0.000  -0.000

    2  -0.000  -5.571  -0.440  -1.177  -2.157  -1.177  -2.157  -1.177  -2.157
        0.000   0.000  -0.000  -0.000  -0.000  -0.000  -0.000   0.000   0.000

  chi0(G,G') at the    2 th omega   0.0000  26.7786 [eV]
       1       2       3       4       5       6       7       8       9
    1  -0.000  -0.000   0.000   0.000  -0.000  -0.000   0.000   0.000  -0.000
       -0.000  -0.000   0.000   0.000  -0.000  -0.000   0.000   0.000  -0.000

    2  -0.000  -3.074   0.262  -0.145  -0.877  -0.145  -0.877  -0.145  -0.877
        0.000   0.000  -0.000   0.000   0.000   0.000   0.000   0.000   0.000

 For q-point:  0.000010 0.000020 0.000030
  dielectric constant =   1.9171
  dielectric constant without local fields =   2.0323

  Average fulfillment of the sum rule on Im[epsilon] for q-point    1 :    102.65  [%]
  Heads and wings of the symmetrical epsilon^-1(G,G') 

   Upper and lower wings at the    1 th omega   0.0000   0.0000 [eV]
       1       2       3       4       5       6       7       8       9
      0.522  -0.019   0.019   0.056  -0.056  -0.056   0.056   0.019  -0.019
      0.000  -0.000   0.000   0.000  -0.000  -0.000   0.000   0.000  -0.000
       1       2       3       4       5       6       7       8       9
      0.522  -0.019   0.019   0.056  -0.056  -0.056   0.056   0.019  -0.019
      0.000   0.000  -0.000  -0.000   0.000   0.000  -0.000  -0.000   0.000


   Upper and lower wings at the    2 th omega   0.0000  26.7786 [eV]
       1       2       3       4       5       6       7       8       9
      0.779  -0.013   0.013   0.040  -0.040  -0.040   0.040   0.013  -0.013
     -0.000  -0.000   0.000   0.000  -0.000  -0.000   0.000   0.000  -0.000
       1       2       3       4       5       6       7       8       9
      0.779  -0.013   0.013   0.040  -0.040  -0.040   0.040   0.013  -0.013
     -0.000   0.000  -0.000  -0.000   0.000   0.000  -0.000  -0.000   0.000




--------------------------------------------------------------------------------
  q-point number  2        q = ( 0.125000, 0.000000, 0.000000) [r.l.u.]
--------------------------------------------------------------------------------
  chi0(G,G') at the    1 th omega   0.0000   0.0000 [eV]
       1       2       3       4       5       6       7       8       9
    1  -0.295   0.445  -0.414  -0.017   0.259  -0.017   0.259  -0.017   0.259
        0.000   0.000   0.000   0.000   0.000   0.000   0.000   0.000   0.000

    2   0.445  -5.755  -0.430  -1.358  -2.427  -1.358  -2.427  -1.358  -2.427
       -0.000   0.000  -0.000  -0.000   0.000  -0.000   0.000  -0.000   0.000

  chi0(G,G') at the    2 th omega   0.0000  26.7786 [eV]
       1       2       3       4       5       6       7       8       9
    1  -0.092   0.205  -0.186  -0.031   0.098  -0.031   0.098  -0.031   0.098
        0.000   0.000   0.000   0.000   0.000   0.000   0.000   0.000   0.000

    2   0.205  -3.383   0.258  -0.265  -1.096  -0.265  -1.096  -0.265  -1.096
       -0.000   0.000  -0.000  -0.000   0.000  -0.000   0.000  -0.000   0.000

  Average fulfillment of the sum rule on Im[epsilon] for q-point    2 :    105.02  [%]


--------------------------------------------------------------------------------
  q-point number  3        q = ( 0.250000, 0.000000, 0.000000) [r.l.u.]
--------------------------------------------------------------------------------
  chi0(G,G') at the    1 th omega   0.0000   0.0000 [eV]
       1       2       3       4       5       6       7       8       9
    1  -1.071   0.853  -0.738   0.207   0.668   0.207   0.668   0.207   0.668
        0.000   0.000   0.000   0.000   0.000   0.000   0.000   0.000   0.000

    2   0.853  -5.819  -0.401  -1.501  -2.623  -1.501  -2.623  -1.501  -2.623
       -0.000   0.000  -0.000  -0.000   0.000  -0.000   0.000   0.000   0.000

  chi0(G,G') at the    2 th omega   0.0000  26.7786 [eV]
       1       2       3       4       5       6       7       8       9
    1  -0.353   0.410  -0.336   0.009   0.248   0.009   0.248   0.009   0.248
        0.000   0.000   0.000   0.000   0.000   0.000   0.000   0.000   0.000

    2   0.410  -3.615   0.247  -0.387  -1.294  -0.387  -1.294  -0.387  -1.294
       -0.000   0.000  -0.000  -0.000   0.000  -0.000   0.000   0.000   0.000

  Average fulfillment of the sum rule on Im[epsilon] for q-point    3 :    104.43  [%]


--------------------------------------------------------------------------------
  q-point number  4        q = ( 0.375000, 0.000000, 0.000000) [r.l.u.]
--------------------------------------------------------------------------------
  chi0(G,G') at the    1 th omega   0.0000   0.0000 [eV]
       1       2       3       4       5       6       7       8       9
    1  -2.085   1.184  -0.940   0.592   1.104   0.592   1.104   0.592   1.104
        0.000   0.000   0.000   0.000   0.000   0.000   0.000   0.000   0.000

    2   1.184  -5.795  -0.355  -1.592  -2.749  -1.592  -2.749  -1.592  -2.749
       -0.000   0.000  -0.000  -0.000   0.000  -0.000   0.000   0.000   0.000

  chi0(G,G') at the    2 th omega   0.0000  26.7786 [eV]
       1       2       3       4       5       6       7       8       9
    1  -0.749   0.601  -0.432   0.116   0.428   0.116   0.428   0.116   0.428
        0.000   0.000   0.000   0.000   0.000   0.000   0.000   0.000   0.000

    2   0.601  -3.774   0.228  -0.504  -1.465  -0.504  -1.465  -0.504  -1.465
       -0.000   0.000  -0.000   0.000   0.000  -0.000   0.000   0.000   0.000

  Average fulfillment of the sum rule on Im[epsilon] for q-point    4 :    103.93  [%]


--------------------------------------------------------------------------------
  q-point number  5        q = ( 0.500000, 0.000000, 0.000000) [r.l.u.]
--------------------------------------------------------------------------------
  chi0(G,G') at the    1 th omega   0.0000   0.0000 [eV]
       1       2       3       4       5       6       7       8       9
    1  -3.111   1.428  -1.008   1.037   1.483   1.037   1.483   1.037   1.483
        0.000   0.000   0.000   0.000   0.000   0.000   0.000   0.000   0.000

    2   1.428  -5.704  -0.294  -1.631  -2.821  -1.631  -2.821  -1.631  -2.821
       -0.000   0.000  -0.000   0.000   0.000  -0.000   0.000   0.000   0.000

  chi0(G,G') at the    2 th omega   0.0000  26.7786 [eV]
       1       2       3       4       5       6       7       8       9
    1  -1.228   0.768  -0.465   0.273   0.618   0.273   0.618   0.273   0.618
        0.000   0.000   0.000   0.000   0.000   0.000   0.000  -0.000   0.000

    2   0.768  -3.868   0.200  -0.612  -1.608  -0.612  -1.608  -0.612  -1.608
       -0.000   0.000  -0.000   0.000   0.000   0.000   0.000   0.000   0.000

  Average fulfillment of the sum rule on Im[epsilon] for q-point    5 :    103.74  [%]


--------------------------------------------------------------------------------
  q-point number  6        q = ( 0.125000, 0.125000, 0.000000) [r.l.u.]
--------------------------------------------------------------------------------
  chi0(G,G') at the    1 th omega   0.0000   0.0000 [eV]
       1       2       3       4       5       6       7       8       9
    1  -0.390   0.401  -0.149  -0.149   0.401  -0.149   0.401   0.401  -0.149
        0.000   0.000   0.000   0.000   0.000   0.000   0.000   0.000   0.000

    2   0.401  -5.730  -0.501  -1.209  -2.447  -1.209  -2.447  -1.525  -2.174
       -0.000   0.000  -0.000  -0.000   0.000  -0.000   0.000  -0.000  -0.000

  chi0(G,G') at the    2 th omega   0.0000  26.7786 [eV]
       1       2       3       4       5       6       7       8       9
    1  -0.122   0.165  -0.092  -0.092   0.165  -0.092   0.165   0.165  -0.092
        0.000   0.000   0.000   0.000   0.000   0.000   0.000   0.000   0.000

    2   0.165  -3.304   0.238  -0.164  -1.104  -0.164  -1.104  -0.375  -0.894
       -0.000   0.000  -0.000  -0.000   0.000  -0.000   0.000  -0.000  -0.000

  Average fulfillment of the sum rule on Im[epsilon] for q-point    6 :    104.94  [%]


--------------------------------------------------------------------------------
  q-point number  7        q = ( 0.250000, 0.125000, 0.000000) [r.l.u.]
--------------------------------------------------------------------------------
  chi0(G,G') at the    1 th omega   0.0000   0.0000 [eV]
       1       2       3       4       5       6       7       8       9
    1  -0.996   0.803  -0.491  -0.016   0.710  -0.016   0.710   0.557   0.319
        0.000   0.000   0.000   0.000   0.000   0.000   0.000   0.000   0.000

    2   0.803  -5.822  -0.477  -1.372  -2.639  -1.372  -2.639  -1.653  -2.440
       -0.000   0.000  -0.000  -0.000   0.000  -0.000   0.000   0.000  -0.000

  chi0(G,G') at the    2 th omega   0.0000  26.7786 [eV]
       1       2       3       4       5       6       7       8       9
    1  -0.325   0.366  -0.252  -0.078   0.285  -0.078   0.285   0.186   0.066
        0.000   0.000   0.000   0.000   0.000   0.000   0.000   0.000   0.000

    2   0.366  -3.556   0.229  -0.289  -1.296  -0.289  -1.296  -0.486  -1.122
       -0.000   0.000  -0.000  -0.000   0.000  -0.000   0.000   0.000   0.000

  Average fulfillment of the sum rule on Im[epsilon] for q-point    7 :    104.48  [%]


--------------------------------------------------------------------------------
  q-point number  8        q = ( 0.375000, 0.125000, 0.000000) [r.l.u.]
--------------------------------------------------------------------------------
  chi0(G,G') at the    1 th omega   0.0000   0.0000 [eV]
       1       2       3       4       5       6       7       8       9
    1  -1.914   1.143  -0.727   0.328   1.087   0.328   1.087   0.859   0.849
        0.000   0.000   0.000   0.000   0.000   0.000   0.000   0.000   0.000

    2   1.143  -5.820  -0.434  -1.490  -2.768  -1.490  -2.768  -1.733  -2.621
       -0.000   0.000  -0.000  -0.000   0.000  -0.000   0.000   0.000  -0.000

  chi0(G,G') at the    2 th omega   0.0000  26.7786 [eV]
       1       2       3       4       5       6       7       8       9
    1  -0.673   0.558  -0.364   0.008   0.441   0.008   0.441   0.265   0.265
        0.000   0.000   0.000   0.000   0.000   0.000   0.000   0.000   0.000

    2   0.558  -3.735   0.214  -0.412  -1.464  -0.412  -1.464  -0.592  -1.322
       -0.000   0.000  -0.000  -0.000   0.000  -0.000   0.000   0.000   0.000

  Average fulfillment of the sum rule on Im[epsilon] for q-point    8 :    103.99  [%]


--------------------------------------------------------------------------------
  q-point number  9        q = ( 0.500000, 0.125000, 0.000000) [r.l.u.]
--------------------------------------------------------------------------------
  chi0(G,G') at the    1 th omega   0.0000   0.0000 [eV]
       1       2       3       4       5       6       7       8       9
    1  -2.913   1.401  -0.837   0.780   1.440   0.780   1.440   1.225   1.327
        0.000   0.000   0.000   0.000   0.000   0.000   0.000   0.000   0.000

    2   1.401  -5.746  -0.375  -1.556  -2.844  -1.556  -2.844  -1.764  -2.733
       -0.000   0.000  -0.000  -0.000   0.000  -0.000   0.000   0.000  -0.000

  chi0(G,G') at the    2 th omega   0.0000  26.7786 [eV]
       1       2       3       4       5       6       7       8       9
    1  -1.120   0.730  -0.418   0.155   0.612   0.155   0.612   0.391   0.481
        0.000   0.000   0.000   0.000   0.000   0.000   0.000   0.000   0.000

    2   0.730  -3.847   0.190  -0.528  -1.605  -0.528  -1.605  -0.689  -1.492
       -0.000   0.000  -0.000   0.000   0.000  -0.000   0.000   0.000   0.000

  Average fulfillment of the sum rule on Im[epsilon] for q-point    9 :    103.73  [%]


--------------------------------------------------------------------------------
  q-point number 10        q = (-0.375000, 0.125000, 0.000000) [r.l.u.]
--------------------------------------------------------------------------------
  chi0(G,G') at the    1 th omega   0.0000   0.0000 [eV]
       1       2       3       4       5       6       7       8       9
    1  -2.585  -0.815   1.323   1.248   0.981   1.248   0.981   1.345   0.369
        0.000  -0.000  -0.000  -0.000  -0.000  -0.000  -0.000  -0.000   0.000

    2  -0.815  -3.830  -0.395  -0.438  -1.143  -0.438  -1.143  -0.758  -0.473
        0.000   0.000  -0.000  -0.000  -0.000  -0.000  -0.000  -0.000  -0.000

  chi0(G,G') at the    2 th omega   0.0000  26.7786 [eV]
       1       2       3       4       5       6       7       8       9
    1  -0.963  -0.407   0.675   0.464   0.273   0.464   0.273   0.592  -0.004
        0.000  -0.000  -0.000  -0.000  -0.000  -0.000  -0.000  -0.000   0.000

    2  -0.407  -1.616   0.199   0.198  -0.280   0.198  -0.280  -0.009   0.063
        0.000   0.000  -0.000  -0.000  -0.000  -0.000  -0.000  -0.000  -0.000

  Average fulfillment of the sum rule on Im[epsilon] for q-point   10 :    103.79  [%]


--------------------------------------------------------------------------------
  q-point number 11        q = (-0.250000, 0.125000, 0.000000) [r.l.u.]
--------------------------------------------------------------------------------
  chi0(G,G') at the    1 th omega   0.0000   0.0000 [eV]
       1       2       3       4       5       6       7       8       9
    1  -1.588  -0.663   1.037   0.798   0.605   0.798   0.605   1.005  -0.093
        0.000  -0.000  -0.000  -0.000  -0.000  -0.000  -0.000  -0.000   0.000

    2  -0.663  -4.580  -0.449  -0.622  -1.522  -0.622  -1.522  -0.965  -0.939
        0.000   0.000  -0.000  -0.000  -0.000  -0.000  -0.000  -0.000  -0.000

  chi0(G,G') at the    2 th omega   0.0000  26.7786 [eV]
       1       2       3       4       5       6       7       8       9
    1  -0.544  -0.333   0.496   0.267   0.156   0.267   0.156   0.435  -0.139
        0.000  -0.000  -0.000  -0.000  -0.000  -0.000  -0.000  -0.000   0.000

    2  -0.333  -2.113   0.220   0.143  -0.468   0.143  -0.468  -0.075  -0.149
        0.000   0.000  -0.000  -0.000  -0.000  -0.000   0.000  -0.000  -0.000

  Average fulfillment of the sum rule on Im[epsilon] for q-point   11 :    104.14  [%]


--------------------------------------------------------------------------------
  q-point number 12        q = (-0.125000, 0.125000, 0.000000) [r.l.u.]
--------------------------------------------------------------------------------
  chi0(G,G') at the    1 th omega   0.0000   0.0000 [eV]
       1       2       3       4       5       6       7       8       9
    1  -0.746  -0.388   0.673   0.337   0.337   0.337   0.337   0.673  -0.388
        0.000  -0.000  -0.000  -0.000  -0.000  -0.000  -0.000  -0.000  -0.000

    2  -0.388  -5.137  -0.486  -0.818  -1.877  -0.818  -1.877  -1.167  -1.400
        0.000   0.000  -0.000  -0.000  -0.000  -0.000   0.000  -0.000  -0.000

  chi0(G,G') at the    2 th omega   0.0000  26.7786 [eV]
       1       2       3       4       5       6       7       8       9
    1  -0.239  -0.203   0.300   0.095   0.095   0.095   0.095   0.300  -0.203
        0.000  -0.000  -0.000  -0.000  -0.000  -0.000  -0.000  -0.000  -0.000

    2  -0.203  -2.574   0.233   0.060  -0.678   0.060  -0.678  -0.163  -0.392
        0.000   0.000  -0.000  -0.000  -0.000  -0.000   0.000  -0.000  -0.000

  Average fulfillment of the sum rule on Im[epsilon] for q-point   12 :    104.65  [%]


--------------------------------------------------------------------------------
  q-point number 13        q = ( 0.250000, 0.250000, 0.000000) [r.l.u.]
--------------------------------------------------------------------------------
  chi0(G,G') at the    1 th omega   0.0000   0.0000 [eV]
       1       2       3       4       5       6       7       8       9
    1  -1.382   0.906   0.006   0.006   0.906   0.006   0.906   0.906   0.006
        0.000   0.000   0.000   0.000   0.000   0.000   0.000   0.000   0.000

    2   0.906  -5.841  -0.659  -1.291  -2.681  -1.291  -2.681  -1.766  -2.214
       -0.000   0.000  -0.000  -0.000   0.000  -0.000   0.000   0.000  -0.000

  chi0(G,G') at the    2 th omega   0.0000  26.7786 [eV]
       1       2       3       4       5       6       7       8       9
    1  -0.463   0.373  -0.093  -0.093   0.373  -0.093   0.373   0.373  -0.093
        0.000   0.000   0.000   0.000   0.000   0.000   0.000   0.000   0.000

    2   0.373  -3.513   0.170  -0.218  -1.319  -0.218  -1.319  -0.586  -0.942
       -0.000   0.000  -0.000  -0.000   0.000  -0.000   0.000   0.000  -0.000

  Average fulfillment of the sum rule on Im[epsilon] for q-point   13 :    104.25  [%]


--------------------------------------------------------------------------------
  q-point number 14        q = ( 0.375000, 0.250000, 0.000000) [r.l.u.]
--------------------------------------------------------------------------------
  chi0(G,G') at the    1 th omega   0.0000   0.0000 [eV]
       1       2       3       4       5       6       7       8       9
    1  -2.105   1.211  -0.235   0.258   1.188   0.258   1.188   1.128   0.605
        0.000   0.000   0.000   0.000   0.000   0.000   0.000   0.000   0.000

    2   1.211  -5.851  -0.616  -1.418  -2.803  -1.418  -2.803  -1.836  -2.460
       -0.000   0.000  -0.000  -0.000   0.000  -0.000   0.000   0.000  -0.000

  chi0(G,G') at the    2 th omega   0.0000  26.7786 [eV]
       1       2       3       4       5       6       7       8       9
    1  -0.747   0.555  -0.214  -0.033   0.498  -0.033   0.498   0.428   0.117
        0.000   0.000   0.000   0.000   0.000   0.000   0.000   0.000   0.000

    2   0.555  -3.704   0.158  -0.342  -1.478  -0.342  -1.478  -0.680  -1.170
       -0.000   0.000  -0.000  -0.000   0.000  -0.000   0.000   0.000   0.000

  Average fulfillment of the sum rule on Im[epsilon] for q-point   14 :    103.92  [%]


--------------------------------------------------------------------------------
  q-point number 15        q = ( 0.500000, 0.250000, 0.000000) [r.l.u.]
--------------------------------------------------------------------------------
  chi0(G,G') at the    1 th omega   0.0000   0.0000 [eV]
       1       2       3       4       5       6       7       8       9
    1  -2.976   1.452  -0.376   0.664   1.482   0.664   1.482   1.415   1.174
        0.000   0.000   0.000   0.000   0.000   0.000   0.000   0.000   0.000

    2   1.452  -5.788  -0.555  -1.500  -2.877  -1.500  -2.877  -1.863  -2.621
       -0.000   0.000  -0.000  -0.000   0.000  -0.000   0.000   0.000  -0.000

  chi0(G,G') at the    2 th omega   0.0000  26.7786 [eV]
       1       2       3       4       5       6       7       8       9
    1  -1.140   0.721  -0.283   0.093   0.645   0.093   0.645   0.526   0.351
        0.000   0.000   0.000   0.000   0.000   0.000   0.000   0.000   0.000

    2   0.721  -3.828   0.139  -0.462  -1.615  -0.462  -1.615  -0.767  -1.367
       -0.000   0.000  -0.000   0.000   0.000  -0.000   0.000   0.000   0.000

  Average fulfillment of the sum rule on Im[epsilon] for q-point   15 :    103.70  [%]


--------------------------------------------------------------------------------
  q-point number 16        q = (-0.375000, 0.250000, 0.000000) [r.l.u.]
--------------------------------------------------------------------------------
  chi0(G,G') at the    1 th omega   0.0000   0.0000 [eV]
       1       2       3       4       5       6       7       8       9
    1  -3.283  -0.400   1.516   1.490   1.400   1.490   1.400   1.550   0.227
        0.000  -0.000  -0.000  -0.000  -0.000  -0.000  -0.000  -0.000   0.000

    2  -0.400  -3.829  -0.522  -0.434  -1.341  -0.434  -1.341  -0.925   0.063
        0.000   0.000  -0.000  -0.000  -0.000  -0.000  -0.000  -0.000  -0.000

  chi0(G,G') at the    2 th omega   0.0000  26.7786 [eV]
       1       2       3       4       5       6       7       8       9
    1  -1.289  -0.294   0.772   0.543   0.460   0.543   0.460   0.744  -0.082
        0.000  -0.000  -0.000  -0.000  -0.000  -0.000  -0.000  -0.000   0.000

    2  -0.294  -1.596   0.132   0.209  -0.403   0.209  -0.403  -0.153   0.298
        0.000   0.000  -0.000  -0.000  -0.000  -0.000  -0.000  -0.000  -0.000

  Average fulfillment of the sum rule on Im[epsilon] for q-point   16 :    103.67  [%]


--------------------------------------------------------------------------------
  q-point number 17        q = (-0.250000, 0.250000, 0.000000) [r.l.u.]
--------------------------------------------------------------------------------
  chi0(G,G') at the    1 th omega   0.0000   0.0000 [eV]
       1       2       3       4       5       6       7       8       9
    1  -2.392  -0.304   1.293   1.065   1.065   1.065   1.065   1.293  -0.304
        0.000  -0.000  -0.000  -0.000  -0.000  -0.000  -0.000  -0.000  -0.000

    2  -0.304  -4.558  -0.589  -0.590  -1.674  -0.590  -1.674  -1.127  -0.422
        0.000   0.000  -0.000  -0.000  -0.000  -0.000   0.000  -0.000  -0.000

  chi0(G,G') at the    2 th omega   0.0000  26.7786 [eV]
       1       2       3       4       5       6       7       8       9
    1  -0.870  -0.244   0.613   0.342   0.342   0.342   0.342   0.613  -0.244
        0.000  -0.000  -0.000  -0.000  -0.000  -0.000  -0.000  -0.000  -0.000

    2  -0.244  -2.067   0.153   0.174  -0.565   0.174  -0.565  -0.214   0.097
        0.000   0.000  -0.000  -0.000  -0.000  -0.000  -0.000  -0.000  -0.000

  Average fulfillment of the sum rule on Im[epsilon] for q-point   17 :    103.83  [%]


--------------------------------------------------------------------------------
  q-point number 18        q = ( 0.375000, 0.375000, 0.000000) [r.l.u.]
--------------------------------------------------------------------------------
  chi0(G,G') at the    1 th omega   0.0000   0.0000 [eV]
       1       2       3       4       5       6       7       8       9
    1  -2.594   1.368   0.397   0.397   1.368   0.397   1.368   1.368   0.397
        0.000   0.000   0.000   0.000   0.000   0.000   0.000   0.000   0.000

    2   1.368  -5.877  -0.852  -1.383  -2.840  -1.384  -2.840  -1.899  -2.259
       -0.000   0.000  -0.000  -0.000   0.000  -0.000   0.000   0.000  -0.000

  chi0(G,G') at the    2 th omega   0.0000  26.7786 [eV]
       1       2       3       4       5       6       7       8       9
    1  -0.960   0.592  -0.003  -0.003   0.592  -0.003   0.592   0.592  -0.003
        0.000   0.000   0.000   0.000   0.000   0.000   0.000   0.000   0.000

    2   0.592  -3.685   0.067  -0.301  -1.508  -0.301  -1.508  -0.764  -1.017
       -0.000   0.000  -0.000  -0.000   0.000  -0.000   0.000   0.000  -0.000

  Average fulfillment of the sum rule on Im[epsilon] for q-point   18 :    103.76  [%]


--------------------------------------------------------------------------------
  q-point number 19        q = ( 0.500000, 0.375000, 0.000000) [r.l.u.]
--------------------------------------------------------------------------------
  chi0(G,G') at the    1 th omega   0.0000   0.0000 [eV]
       1       2       3       4       5       6       7       8       9
    1  -3.262   1.564   0.250   0.708   1.582   0.708   1.582   1.579   1.029
        0.000   0.000   0.000   0.000   0.000   0.000   0.000   0.000   0.000

    2   1.564  -5.821  -0.788  -1.466  -2.907  -1.466  -2.907  -1.923  -2.476
       -0.000   0.000  -0.000  -0.000   0.000  -0.000   0.000   0.000  -0.000

  chi0(G,G') at the    2 th omega   0.0000  26.7786 [eV]
       1       2       3       4       5       6       7       8       9
    1  -1.285   0.744  -0.081   0.095   0.709   0.095   0.709   0.664   0.241
        0.000   0.000   0.000   0.000   0.000   0.000   0.000   0.000   0.000

    2   0.744  -3.815   0.054  -0.418  -1.636  -0.418  -1.636  -0.841  -1.238
       -0.000   0.000  -0.000   0.000   0.000  -0.000   0.000   0.000   0.000

  Average fulfillment of the sum rule on Im[epsilon] for q-point   19 :    103.63  [%]


--------------------------------------------------------------------------------
  q-point number 20        q = (-0.375000, 0.375000, 0.000000) [r.l.u.]
--------------------------------------------------------------------------------
  chi0(G,G') at the    1 th omega   0.0000   0.0000 [eV]
       1       2       3       4       5       6       7       8       9
    1  -4.019   0.187   1.708   1.773   1.773   1.773   1.773   1.708   0.187
        0.000  -0.000  -0.000  -0.000   0.000   0.000  -0.000  -0.000  -0.000

    2   0.187  -3.975  -0.683  -0.543  -1.566  -0.543  -1.566  -1.054   0.512
        0.000   0.000  -0.000  -0.000  -0.000  -0.000  -0.000  -0.000  -0.000

  chi0(G,G') at the    2 th omega   0.0000  26.7786 [eV]
       1       2       3       4       5       6       7       8       9
    1  -1.686  -0.108   0.879   0.655   0.655   0.655   0.655   0.879  -0.108
        0.000  -0.000  -0.000  -0.000   0.000  -0.000  -0.000  -0.000  -0.000

    2  -0.108  -1.681   0.036   0.164  -0.564   0.164  -0.564  -0.295   0.473
        0.000   0.000  -0.000  -0.000  -0.000  -0.000  -0.000  -0.000  -0.000

  Average fulfillment of the sum rule on Im[epsilon] for q-point   20 :    103.61  [%]


--------------------------------------------------------------------------------
  q-point number 21        q = ( 0.500000, 0.500000, 0.000000) [r.l.u.]
--------------------------------------------------------------------------------
  chi0(G,G') at the    1 th omega   0.0000   0.0000 [eV]
       1       2       3       4       5       6       7       8       9
    1  -3.705   1.712   0.903   0.903   1.712   0.903   1.712   1.712   0.903
        0.000   0.000   0.000   0.000   0.000   0.000   0.000   0.000   0.000

    2   1.712  -5.832  -1.023  -1.454  -2.928  -1.454  -2.928  -1.948  -2.289
       -0.000   0.000  -0.000  -0.000   0.000  -0.000   0.000  -0.000  -0.000

  chi0(G,G') at the    2 th omega   0.0000  26.7786 [eV]
       1       2       3       4       5       6       7       8       9
    1  -1.535   0.796   0.163   0.163   0.796   0.163   0.796   0.796   0.163
        0.000   0.000   0.000   0.000   0.000   0.000   0.000   0.000   0.000

    2   0.796  -3.810  -0.055  -0.402  -1.666  -0.402  -1.666  -0.908  -1.112
       -0.000   0.000  -0.000  -0.000  -0.000  -0.000   0.000  -0.000  -0.000

  Average fulfillment of the sum rule on Im[epsilon] for q-point   21 :    103.60  [%]


--------------------------------------------------------------------------------
  q-point number 22        q = ( 0.375000, 0.250000, 0.125000) [r.l.u.]
--------------------------------------------------------------------------------
  chi0(G,G') at the    1 th omega   0.0000   0.0000 [eV]
       1       2       3       4       5       6       7       8       9
    1  -1.661   1.054  -0.299   0.510   0.905  -0.299   1.054   0.905   0.510
        0.000   0.000   0.000   0.000   0.000   0.000   0.000   0.000   0.000

    2   1.054  -5.847  -0.577  -1.576  -2.677  -1.184  -2.775  -1.767  -2.466
       -0.000   0.000  -0.000  -0.000  -0.000  -0.000   0.000  -0.000  -0.000

  chi0(G,G') at the    2 th omega   0.0000  26.7786 [eV]
       1       2       3       4       5       6       7       8       9
    1  -0.570   0.475  -0.217   0.104   0.325  -0.217   0.475   0.325   0.104
        0.000   0.000   0.000   0.000   0.000   0.000   0.000   0.000   0.000

    2   0.475  -3.640   0.183  -0.429  -1.328  -0.198  -1.457  -0.595  -1.154
       -0.000   0.000  -0.000  -0.000  -0.000  -0.000   0.000  -0.000  -0.000

  Average fulfillment of the sum rule on Im[epsilon] for q-point   22 :    104.11  [%]


--------------------------------------------------------------------------------
  q-point number 23        q = ( 0.500000, 0.250000, 0.125000) [r.l.u.]
--------------------------------------------------------------------------------
  chi0(G,G') at the    1 th omega   0.0000   0.0000 [eV]
       1       2       3       4       5       6       7       8       9
    1  -2.548   1.334  -0.481   0.850   1.283   0.113   1.345   1.199   1.051
        0.000   0.000   0.000   0.000   0.000   0.000   0.000   0.000   0.000

    2   1.334  -5.811  -0.524  -1.649  -2.789  -1.312  -2.864  -1.816  -2.633
       -0.000   0.000  -0.000   0.000  -0.000  -0.000   0.000   0.000  -0.000

  chi0(G,G') at the    2 th omega   0.0000  26.7786 [eV]
       1       2       3       4       5       6       7       8       9
    1  -0.940   0.652  -0.307   0.204   0.493  -0.104   0.610   0.414   0.319
        0.000   0.000   0.000   0.000   0.000   0.000   0.000   0.000   0.000

    2   0.652  -3.789   0.166  -0.540  -1.491  -0.331  -1.596  -0.690  -1.351
       -0.000   0.000  -0.000   0.000  -0.000  -0.000   0.000   0.000  -0.000

  Average fulfillment of the sum rule on Im[epsilon] for q-point   23 :    103.79  [%]


--------------------------------------------------------------------------------
  q-point number 24        q = (-0.375000, 0.250000, 0.125000) [r.l.u.]
--------------------------------------------------------------------------------
  chi0(G,G') at the    1 th omega   0.0000   0.0000 [eV]
       1       2       3       4       5       6       7       8       9
    1  -3.460  -0.543   1.543   1.619   1.252   1.515   1.528   1.613   0.635
        0.000  -0.000  -0.000  -0.000   0.000   0.000  -0.000  -0.000   0.000

    2  -0.543  -3.460  -0.454  -0.567  -0.862  -0.159  -1.289  -0.779  -0.066
        0.000   0.000  -0.000  -0.000  -0.000  -0.000  -0.000  -0.000  -0.000

  chi0(G,G') at the    2 th omega   0.0000  26.7786 [eV]
       1       2       3       4       5       6       7       8       9
    1  -1.389  -0.338   0.807   0.670   0.351   0.542   0.541   0.755   0.070
        0.000  -0.000  -0.000  -0.000   0.000   0.000  -0.000   0.000   0.000

    2  -0.338  -1.389   0.141   0.096  -0.137   0.323  -0.412  -0.073   0.238
        0.000   0.000  -0.000  -0.000  -0.000  -0.000  -0.000  -0.000  -0.000

  Average fulfillment of the sum rule on Im[epsilon] for q-point   24 :    103.67  [%]


--------------------------------------------------------------------------------
  q-point number 25        q = ( 0.500000, 0.375000, 0.125000) [r.l.u.]
--------------------------------------------------------------------------------
  chi0(G,G') at the    1 th omega   0.0000   0.0000 [eV]
       1       2       3       4       5       6       7       8       9
    1  -2.796   1.428   0.072   0.866   1.406   0.072   1.428   1.406   0.866
        0.000   0.000   0.000   0.000   0.000   0.000   0.000   0.000   0.000

    2   1.428  -5.843  -0.731  -1.615  -2.832  -1.237  -2.887  -1.893  -2.482
       -0.000   0.000  -0.000  -0.000  -0.000  -0.000   0.000  -0.000  -0.000

  chi0(G,G') at the    2 th omega   0.0000  26.7786 [eV]
       1       2       3       4       5       6       7       8       9
    1  -1.052   0.663  -0.131   0.192   0.563  -0.131   0.663   0.563   0.192
        0.000   0.000   0.000   0.000   0.000   0.000   0.000   0.000   0.000

    2   0.663  -3.769   0.095  -0.491  -1.514  -0.266  -1.610  -0.770  -1.211
       -0.000   0.000  -0.000   0.000  -0.000  -0.000   0.000  -0.000   0.000

  Average fulfillment of the sum rule on Im[epsilon] for q-point   25 :    103.72  [%]


--------------------------------------------------------------------------------
  q-point number 26        q = (-0.375000, 0.375000, 0.125000) [r.l.u.]
--------------------------------------------------------------------------------
  chi0(G,G') at the    1 th omega   0.0000   0.0000 [eV]
       1       2       3       4       5       6       7       8       9
    1  -4.096  -0.022   1.708   1.845   1.691   1.771   1.826   1.753   0.573
        0.000  -0.000  -0.000  -0.000   0.000   0.000  -0.000   0.000   0.000

    2  -0.022  -3.576  -0.592  -0.628  -1.177  -0.245  -1.469  -0.924   0.398
        0.000   0.000  -0.000  -0.000  -0.000  -0.000  -0.000  -0.000  -0.000

  chi0(G,G') at the    2 th omega   0.0000  26.7786 [eV]
       1       2       3       4       5       6       7       8       9
    1  -1.737  -0.178   0.898   0.759   0.561   0.641   0.705   0.883   0.031
        0.000  -0.000  -0.000  -0.000   0.000   0.000  -0.000   0.000   0.000

    2  -0.178  -1.445   0.060   0.072  -0.317   0.293  -0.547  -0.217   0.428
        0.000   0.000  -0.000  -0.000  -0.000  -0.000  -0.000  -0.000  -0.000

  Average fulfillment of the sum rule on Im[epsilon] for q-point   26 :    103.62  [%]


--------------------------------------------------------------------------------
  q-point number 27        q = (-0.250000, 0.375000, 0.125000) [r.l.u.]
--------------------------------------------------------------------------------
  chi0(G,G') at the    1 th omega   0.0000   0.0000 [eV]
       1       2       3       4       5       6       7       8       9
    1  -3.328  -0.008   1.554   1.547   1.355   1.355   1.547   1.554  -0.008
        0.000  -0.000  -0.000  -0.000   0.000   0.000  -0.000   0.000  -0.000

    2  -0.008  -4.311  -0.674  -0.781  -1.482  -0.327  -1.756  -1.121  -0.013
        0.000   0.000  -0.000   0.000  -0.000  -0.000   0.000  -0.000  -0.000

  chi0(G,G') at the    2 th omega   0.0000  26.7786 [eV]
       1       2       3       4       5       6       7       8       9
    1  -1.309  -0.168   0.764   0.585   0.422   0.422   0.585   0.764  -0.168
        0.000  -0.000  -0.000  -0.000   0.000   0.000  -0.000   0.000  -0.000

    2  -0.168  -1.883   0.084   0.052  -0.448   0.298  -0.671  -0.264   0.276
        0.000   0.000  -0.000  -0.000  -0.000  -0.000   0.000  -0.000  -0.000

  Average fulfillment of the sum rule on Im[epsilon] for q-point   27 :    103.65  [%]


--------------------------------------------------------------------------------
  q-point number 28        q = (-0.375000, 0.500000, 0.125000) [r.l.u.]
--------------------------------------------------------------------------------
  chi0(G,G') at the    1 th omega   0.0000   0.0000 [eV]
       1       2       3       4       5       6       7       8       9
    1  -4.693   0.602   1.859   2.073   2.038   2.038   2.073   1.859   0.602
        0.000  -0.000   0.000  -0.000   0.000   0.000  -0.000   0.000  -0.000

    2   0.602  -3.848  -0.739  -0.771  -1.494  -0.452  -1.669  -1.034   0.708
        0.000   0.000  -0.000  -0.000  -0.000  -0.000  -0.000  -0.000  -0.000

  chi0(G,G') at the    2 th omega   0.0000  26.7786 [eV]
       1       2       3       4       5       6       7       8       9
    1  -2.125   0.039   0.992   0.866   0.764   0.764   0.866   0.992   0.039
        0.000  -0.000   0.000  -0.000   0.000   0.000  -0.000   0.000  -0.000

    2   0.039  -1.609  -0.041  -0.001  -0.526   0.204  -0.710  -0.355   0.543
        0.000   0.000  -0.000  -0.000  -0.000  -0.000  -0.000  -0.000  -0.000

  Average fulfillment of the sum rule on Im[epsilon] for q-point   28 :    103.60  [%]


--------------------------------------------------------------------------------
  q-point number 29        q = (-0.250000, 0.500000, 0.250000) [r.l.u.]
--------------------------------------------------------------------------------
  chi0(G,G') at the    1 th omega   0.0000   0.0000 [eV]
       1       2       3       4       5       6       7       8       9
    1  -4.221   0.490   1.778   1.897   1.709   1.709   1.897   1.778   0.490
        0.000  -0.000   0.000   0.000   0.000   0.000   0.000   0.000  -0.000

    2   0.490  -4.221  -0.789  -0.966  -1.411  -0.230  -1.839  -1.143   0.136
        0.000   0.000  -0.000  -0.000  -0.000  -0.000  -0.000  -0.000  -0.000

  chi0(G,G') at the    2 th omega   0.0000  26.7786 [eV]
       1       2       3       4       5       6       7       8       9
    1  -1.818  -0.005   0.911   0.807   0.554   0.554   0.807   0.911  -0.005
        0.000  -0.000   0.000   0.000   0.000   0.000   0.000   0.000  -0.000

    2  -0.005  -1.818  -0.013  -0.097  -0.406   0.342  -0.805  -0.341   0.339
        0.000   0.000  -0.000  -0.000  -0.000  -0.000  -0.000  -0.000  -0.000

  Average fulfillment of the sum rule on Im[epsilon] for q-point   29 :    103.59  [%]

================================================================================
== DATASET  2 ==================================================================
-   mpi_nproc: 128, omp_nthreads: -1 (-1 if OMP is not activated)


--- !DatasetInfo
iteration_state: {dtset: 2, }
dimensions: {natom: 2, nkpt: 29, mband: 480, nsppol: 1, nspinor: 1, nspden: 1, mpw: 1588, }
cutoff_energies: {ecut:  40.0, pawecutdg:  -1.0, }
electrons: {nelect:   1.00000000E+01, charge:   0.00000000E+00, occopt:   1.00000000E+00, tsmear:   1.00000000E-02, }
meta: {optdriver: 4, gwcalctyp: 0, }
...

 mkfilename: getwfk from: ../outdata_gs_DS2_WFK

 mkfilename : getscr/=0, take file _SCR from output of DATASET   1.

 Exchange-correlation functional for the present dataset will be:
  GGA: Perdew-Burke-Ernzerhof functional - ixc=11
 Citation for XC functional:
  J.P.Perdew, K.Burke, M.Ernzerhof, PRL 77, 3865 (1996)

 SIGMA: Calculation of the GW corrections 

 Based on a program developped by R.W. Godby, V. Olevano, G. Onida, and L. Reining.
 Incorporated in ABINIT by V. Olevano, G.-M. Rignanese, and M. Torrent.
.Using single precision arithmetic ; gwpc =  4

 Real(R)+Recip(G) space primitive vectors, cartesian coordinates (Bohr,Bohr^-1):
 R(1)=  0.0000000  4.0182359  4.0182359  G(1)= -0.1244327  0.1244327  0.1244327
 R(2)=  4.0182359  0.0000000  4.0182359  G(2)=  0.1244327 -0.1244327  0.1244327
 R(3)=  4.0182359  4.0182359  0.0000000  G(3)=  0.1244327  0.1244327 -0.1244327
 Unit cell volume ucvol=  1.2975864E+02 bohr^3
 Angles (23,13,12)=  6.00000000E+01  6.00000000E+01  6.00000000E+01 degrees
--------------------------------------------------------------------------------

 ==== K-mesh for the wavefunctions ====
 Number of points in the irreducible wedge :    29
 Reduced coordinates and weights : 

     1)     0.00000000E+00  0.00000000E+00  0.00000000E+00       0.00195
     2)     1.25000000E-01  0.00000000E+00  0.00000000E+00       0.01563
     3)     2.50000000E-01  0.00000000E+00  0.00000000E+00       0.01563
     4)     3.75000000E-01  0.00000000E+00  0.00000000E+00       0.01563
     5)     5.00000000E-01  0.00000000E+00  0.00000000E+00       0.00781
     6)     1.25000000E-01  1.25000000E-01  0.00000000E+00       0.01172
     7)     2.50000000E-01  1.25000000E-01  0.00000000E+00       0.04688
     8)     3.75000000E-01  1.25000000E-01  0.00000000E+00       0.04688
     9)     5.00000000E-01  1.25000000E-01  0.00000000E+00       0.04688
    10)    -3.75000000E-01  1.25000000E-01  0.00000000E+00       0.04688
    11)    -2.50000000E-01  1.25000000E-01  0.00000000E+00       0.04688
    12)    -1.25000000E-01  1.25000000E-01  0.00000000E+00       0.02344
    13)     2.50000000E-01  2.50000000E-01  0.00000000E+00       0.01172
    14)     3.75000000E-01  2.50000000E-01  0.00000000E+00       0.04688
    15)     5.00000000E-01  2.50000000E-01  0.00000000E+00       0.04688
    16)    -3.75000000E-01  2.50000000E-01  0.00000000E+00       0.04688
    17)    -2.50000000E-01  2.50000000E-01  0.00000000E+00       0.02344
    18)     3.75000000E-01  3.75000000E-01  0.00000000E+00       0.01172
    19)     5.00000000E-01  3.75000000E-01  0.00000000E+00       0.04688
    20)    -3.75000000E-01  3.75000000E-01  0.00000000E+00       0.02344
    21)     5.00000000E-01  5.00000000E-01  0.00000000E+00       0.00586
    22)     3.75000000E-01  2.50000000E-01  1.25000000E-01       0.04688
    23)     5.00000000E-01  2.50000000E-01  1.25000000E-01       0.09375
    24)    -3.75000000E-01  2.50000000E-01  1.25000000E-01       0.04688
    25)     5.00000000E-01  3.75000000E-01  1.25000000E-01       0.04688
    26)    -3.75000000E-01  3.75000000E-01  1.25000000E-01       0.09375
    27)    -2.50000000E-01  3.75000000E-01  1.25000000E-01       0.04688
    28)    -3.75000000E-01  5.00000000E-01  1.25000000E-01       0.02344
    29)    -2.50000000E-01  5.00000000E-01  2.50000000E-01       0.01172

 Together with 48 symmetry operations and time-reversal symmetry 
 yields   512 points in the full Brillouin Zone.


 ==== Q-mesh for screening function ====
 Number of points in the irreducible wedge :    29
 Reduced coordinates and weights : 

     1)     0.00000000E+00  0.00000000E+00  0.00000000E+00       0.00195
     2)     1.25000000E-01  0.00000000E+00  0.00000000E+00       0.01563
     3)     2.50000000E-01  0.00000000E+00  0.00000000E+00       0.01563
     4)     3.75000000E-01  0.00000000E+00  0.00000000E+00       0.01563
     5)     5.00000000E-01  0.00000000E+00  0.00000000E+00       0.00781
     6)     1.25000000E-01  1.25000000E-01  0.00000000E+00       0.01172
     7)     2.50000000E-01  1.25000000E-01  0.00000000E+00       0.04688
     8)     3.75000000E-01  1.25000000E-01  0.00000000E+00       0.04688
     9)     5.00000000E-01  1.25000000E-01  0.00000000E+00       0.04688
    10)    -3.75000000E-01  1.25000000E-01  0.00000000E+00       0.04688
    11)    -2.50000000E-01  1.25000000E-01  0.00000000E+00       0.04688
    12)    -1.25000000E-01  1.25000000E-01  0.00000000E+00       0.02344
    13)     2.50000000E-01  2.50000000E-01  0.00000000E+00       0.01172
    14)     3.75000000E-01  2.50000000E-01  0.00000000E+00       0.04688
    15)     5.00000000E-01  2.50000000E-01  0.00000000E+00       0.04688
    16)    -3.75000000E-01  2.50000000E-01  0.00000000E+00       0.04688
    17)    -2.50000000E-01  2.50000000E-01  0.00000000E+00       0.02344
    18)     3.75000000E-01  3.75000000E-01  0.00000000E+00       0.01172
    19)     5.00000000E-01  3.75000000E-01  0.00000000E+00       0.04688
    20)    -3.75000000E-01  3.75000000E-01  0.00000000E+00       0.02344
    21)     5.00000000E-01  5.00000000E-01  0.00000000E+00       0.00586
    22)     3.75000000E-01  2.50000000E-01  1.25000000E-01       0.04688
    23)     5.00000000E-01  2.50000000E-01  1.25000000E-01       0.09375
    24)    -3.75000000E-01  2.50000000E-01  1.25000000E-01       0.04688
    25)     5.00000000E-01  3.75000000E-01  1.25000000E-01       0.04688
    26)    -3.75000000E-01  3.75000000E-01  1.25000000E-01       0.09375
    27)    -2.50000000E-01  3.75000000E-01  1.25000000E-01       0.04688
    28)    -3.75000000E-01  5.00000000E-01  1.25000000E-01       0.02344
    29)    -2.50000000E-01  5.00000000E-01  2.50000000E-01       0.01172

 Together with 48 symmetry operations and time-reversal symmetry 
 yields   512 points in the full Brillouin Zone.


 setmesh: FFT mesh size selected  =    36x   36x   36
          total number of points  =        46656

 Number of electrons calculated from density =   10.0000; Expected =   10.0000
 average of density, n =  0.077066
 r_s =    1.4577
 omega_plasma =   26.7786 [eV]


 === KS Band Gaps ===
  >>>> For spin  1
   Minimum direct gap =   7.8019 [eV], located at k-point      :   0.0000  0.0000  0.0000
   Fundamental gap    =   7.8019 [eV], Top of valence bands at :   0.0000  0.0000  0.0000
                                       Bottom of conduction at :   0.0000  0.0000  0.0000
 SIGMA fundamental parameters:
 PLASMON POLE MODEL  1
 number of plane-waves for SigmaX                 1471
 number of plane-waves for SigmaC and W            259
 number of plane-waves for wavefunctions          1471
 number of bands                                   480
 number of independent spin polarizations            1
 number of spinorial components                      1
 number of k-points in IBZ                          29
 number of q-points in IBZ                          29
 number of symmetry operations                      48
 number of k-points in BZ                          512
 number of q-points in BZ                          512
 number of frequencies for dSigma/dE                 9
 frequency step for dSigma/dE [eV]                0.25
 number of omega for Sigma on real axis              0
 max omega for Sigma on real axis  [eV]           0.00
 zcut for avoiding poles [eV]                     0.10

 EPSILON^-1 parameters (SCR file):
 dimension of the eps^-1 matrix on file            259
 dimension of the eps^-1 matrix used               259
 number of plane-waves for wavefunctions          1471
 number of bands                                   480
 number of q-points in IBZ                          29
 number of frequencies                               2
 number of real frequencies                          1
 number of imag frequencies                          1

 matrix elements of self-energy operator (all in [eV])

 Perturbative Calculation

--- !SelfEnergy_ee
iteration_state: {dtset: 2, }
kpoint     : [   0.000,    0.000,    0.000, ]
spin       : 1
KS_gap     :    7.802
QP_gap     :   12.047
Delta_QP_KS:    4.245
data: !SigmaeeData |
     Band     E0 <VxcDFT>   SigX SigC(E0)      Z dSigC/dE  Sig(E)    E-E0       E
        1 -43.139 -25.624 -39.725   3.916   0.867  -0.153 -34.456  -8.832 -51.971
        2 -21.363 -22.834 -37.674  10.153   0.575  -0.738 -25.531  -2.697 -24.060
        3  -1.859 -22.743 -30.393   4.179   0.813  -0.230 -25.565  -2.822  -4.681
        4  -1.859 -22.743 -30.393   4.179   0.813  -0.230 -25.565  -2.822  -4.681
        5  -1.859 -22.743 -30.393   4.179   0.813  -0.230 -25.565  -2.822  -4.681
        6   5.943 -10.304  -5.806  -2.897   0.889  -0.124  -8.880   1.424   7.367
        7  20.033  -9.323  -2.776  -3.894   0.873  -0.146  -7.007   2.316  22.349
        8  20.033  -9.323  -2.776  -3.894   0.873  -0.146  -7.007   2.316  22.349
        9  20.033  -9.323  -2.776  -3.894   0.873  -0.146  -7.007   2.316  22.349
...


--- !SelfEnergy_ee
iteration_state: {dtset: 2, }
kpoint     : [   0.500,    0.500,    0.000, ]
spin       : 1
KS_gap     :   14.154
QP_gap     :   19.396
Delta_QP_KS:    5.242
data: !SigmaeeData |
     Band     E0 <VxcDFT>   SigX SigC(E0)      Z dSigC/dE  Sig(E)    E-E0       E
        1 -43.103 -25.687 -39.777   3.908   0.877  -0.141 -34.612  -8.925 -52.028
        2 -20.879 -23.512 -38.335  10.262   0.563  -0.776 -26.079  -2.567 -23.446
        3  -4.218 -18.565 -26.560   3.965   0.817  -0.224 -21.856  -3.291  -7.509
        4  -2.636 -21.407 -29.245   4.147   0.813  -0.231 -24.406  -2.999  -5.635
        5  -2.636 -21.407 -29.245   4.147   0.813  -0.231 -24.406  -2.999  -5.635
        6  11.518 -13.666  -7.922  -3.152   0.866  -0.155 -11.423   2.243  13.762
        7  13.743  -9.666  -4.222  -3.427   0.886  -0.129  -7.879   1.786  15.529
        8  13.885  -6.888  -2.223  -3.266   0.897  -0.115  -5.634   1.255  15.140
...


== END DATASET(S) ==============================================================
================================================================================
  
 -outvars: echo values of variables after computation  --------
            acell      8.0364717690E+00  8.0364717690E+00  8.0364717690E+00 Bohr
              amu      6.94100000E+00  1.89984032E+01
             bdgw           1       8       1       8
           diemac      1.20000000E+01
             ecut      4.00000000E+01 Hartree
          ecuteps      1.20000000E+01 Hartree
         ecutsigx      4.00000000E+01 Hartree
          ecutwfn      4.00000000E+01 Hartree
           etotal1     0.0000000000E+00
           etotal2     0.0000000000E+00
            fcart1     0.0000000000E+00  0.0000000000E+00  0.0000000000E+00
                       0.0000000000E+00  0.0000000000E+00  0.0000000000E+00
            fcart2     0.0000000000E+00  0.0000000000E+00  0.0000000000E+00
                       0.0000000000E+00  0.0000000000E+00  0.0000000000E+00
-          fftalg         312
           getscr1          0
           getscr2         -1
           istwfk        1    0    0    0    1    0    0    0    0    0
                         0    0    0    0    0    0    0    0    0    0
                         1    0    0    0    0    0    0    0    0
              ixc          11
           jdtset        1    2
              kpt      0.00000000E+00  0.00000000E+00  0.00000000E+00
                       1.25000000E-01  0.00000000E+00  0.00000000E+00
                       2.50000000E-01  0.00000000E+00  0.00000000E+00
                       3.75000000E-01  0.00000000E+00  0.00000000E+00
                       5.00000000E-01  0.00000000E+00  0.00000000E+00
                       1.25000000E-01  1.25000000E-01  0.00000000E+00
                       2.50000000E-01  1.25000000E-01  0.00000000E+00
                       3.75000000E-01  1.25000000E-01  0.00000000E+00
                       5.00000000E-01  1.25000000E-01  0.00000000E+00
                      -3.75000000E-01  1.25000000E-01  0.00000000E+00
                      -2.50000000E-01  1.25000000E-01  0.00000000E+00
                      -1.25000000E-01  1.25000000E-01  0.00000000E+00
                       2.50000000E-01  2.50000000E-01  0.00000000E+00
                       3.75000000E-01  2.50000000E-01  0.00000000E+00
                       5.00000000E-01  2.50000000E-01  0.00000000E+00
                      -3.75000000E-01  2.50000000E-01  0.00000000E+00
                      -2.50000000E-01  2.50000000E-01  0.00000000E+00
                       3.75000000E-01  3.75000000E-01  0.00000000E+00
                       5.00000000E-01  3.75000000E-01  0.00000000E+00
                      -3.75000000E-01  3.75000000E-01  0.00000000E+00
                       5.00000000E-01  5.00000000E-01  0.00000000E+00
                       3.75000000E-01  2.50000000E-01  1.25000000E-01
                       5.00000000E-01  2.50000000E-01  1.25000000E-01
                      -3.75000000E-01  2.50000000E-01  1.25000000E-01
                       5.00000000E-01  3.75000000E-01  1.25000000E-01
                      -3.75000000E-01  3.75000000E-01  1.25000000E-01
                      -2.50000000E-01  3.75000000E-01  1.25000000E-01
                      -3.75000000E-01  5.00000000E-01  1.25000000E-01
                      -2.50000000E-01  5.00000000E-01  2.50000000E-01
            kptgw      0.00000000E+00  0.00000000E+00  0.00000000E+00
                       5.00000000E-01  5.00000000E-01  0.00000000E+00
         kptrlatt        8    0    0      0    8    0      0    0    8
          kptrlen      4.54611495E+01
P           mkmem           1
            natom           2
            nband         480
           ndtset           2
            ngfft          36      36      36
             nkpt          29
           nkptgw           2
           npweps         259
          npwsigx        1471
           npwwfn        1471
            nstep          50
             nsym          48
           ntypat           2
              occ      2.000000  2.000000  2.000000  2.000000  2.000000  0.000000
                       0.000000  0.000000  0.000000  0.000000  0.000000  0.000000
                       0.000000  0.000000  0.000000  0.000000  0.000000  0.000000
                       0.000000  0.000000  0.000000  0.000000  0.000000  0.000000
                       0.000000  0.000000  0.000000  0.000000  0.000000  0.000000
                       0.000000  0.000000  0.000000  0.000000  0.000000  0.000000
                       0.000000  0.000000  0.000000  0.000000  0.000000  0.000000
                       0.000000  0.000000  0.000000  0.000000  0.000000  0.000000
                       0.000000  0.000000  0.000000  0.000000  0.000000  0.000000
                       0.000000  0.000000  0.000000  0.000000  0.000000  0.000000
                       0.000000  0.000000  0.000000  0.000000  0.000000  0.000000
                       0.000000  0.000000  0.000000  0.000000  0.000000  0.000000
                       0.000000  0.000000  0.000000  0.000000  0.000000  0.000000
                       0.000000  0.000000  0.000000  0.000000  0.000000  0.000000
                       0.000000  0.000000  0.000000  0.000000  0.000000  0.000000
                       0.000000  0.000000  0.000000  0.000000  0.000000  0.000000
                       0.000000  0.000000  0.000000  0.000000  0.000000  0.000000
                       0.000000  0.000000  0.000000  0.000000  0.000000  0.000000
                       0.000000  0.000000  0.000000  0.000000  0.000000  0.000000
                       0.000000  0.000000  0.000000  0.000000  0.000000  0.000000
                       0.000000  0.000000  0.000000  0.000000  0.000000  0.000000
                       0.000000  0.000000  0.000000  0.000000  0.000000  0.000000
                       0.000000  0.000000  0.000000  0.000000  0.000000  0.000000
                       0.000000  0.000000  0.000000  0.000000  0.000000  0.000000
                       0.000000  0.000000  0.000000  0.000000  0.000000  0.000000
                       0.000000  0.000000  0.000000  0.000000  0.000000  0.000000
                       0.000000  0.000000  0.000000  0.000000  0.000000  0.000000
                       0.000000  0.000000  0.000000  0.000000  0.000000  0.000000
                       0.000000  0.000000  0.000000  0.000000  0.000000  0.000000
                       0.000000  0.000000  0.000000  0.000000  0.000000  0.000000
                       0.000000  0.000000  0.000000  0.000000  0.000000  0.000000
                       0.000000  0.000000  0.000000  0.000000  0.000000  0.000000
                       0.000000  0.000000  0.000000  0.000000  0.000000  0.000000
                       0.000000  0.000000  0.000000  0.000000  0.000000  0.000000
                       0.000000  0.000000  0.000000  0.000000  0.000000  0.000000
                       0.000000  0.000000  0.000000  0.000000  0.000000  0.000000
                       0.000000  0.000000  0.000000  0.000000  0.000000  0.000000
                       0.000000  0.000000  0.000000  0.000000  0.000000  0.000000
                       0.000000  0.000000  0.000000  0.000000  0.000000  0.000000
                       0.000000  0.000000  0.000000  0.000000  0.000000  0.000000
                       0.000000  0.000000  0.000000  0.000000  0.000000  0.000000
                       0.000000  0.000000  0.000000  0.000000  0.000000  0.000000
[...]
                       0 -1  1   0 -1  0   1 -1  0       0  1 -1   0  1  0  -1  1  0
                      -1  0  0  -1  0  1  -1  1  0       1  0  0   1  0 -1   1 -1  0
                       0  1 -1   1  0 -1   0  0 -1       0 -1  1  -1  0  1   0  0  1
                      -1  0  0  -1  1  0  -1  0  1       1  0  0   1 -1  0   1  0 -1
                       0 -1  1   1 -1  0   0 -1  0       0  1 -1  -1  1  0   0  1  0
                       1  0  0   0  0  1   0  1  0      -1  0  0   0  0 -1   0 -1  0
                       0  1 -1   0  0 -1   1  0 -1       0 -1  1   0  0  1  -1  0  1
                      -1  0  1  -1  1  0  -1  0  0       1  0 -1   1 -1  0   1  0  0
                       0 -1  0   1 -1  0   0 -1  1       0  1  0  -1  1  0   0  1 -1
                       1  0 -1   0  0 -1   0  1 -1      -1  0  1   0  0  1   0 -1  1
                       0  1  0   0  0  1   1  0  0       0 -1  0   0  0 -1  -1  0  0
                       1  0 -1   0  1 -1   0  0 -1      -1  0  1   0 -1  1   0  0  1
                       0 -1  0   0 -1  1   1 -1  0       0  1  0   0  1 -1  -1  1  0
                      -1  0  1  -1  0  0  -1  1  0       1  0 -1   1  0  0   1 -1  0
                       0  1  0   1  0  0   0  0  1       0 -1  0  -1  0  0   0  0 -1
                       0  0 -1   0  1 -1   1  0 -1       0  0  1   0 -1  1  -1  0  1
                       1 -1  0   0 -1  1   0 -1  0      -1  1  0   0  1 -1   0  1  0
                       0  0  1   1  0  0   0  1  0       0  0 -1  -1  0  0   0 -1  0
                      -1  1  0  -1  0  0  -1  0  1       1 -1  0   1  0  0   1  0 -1
                       0  0  1   0  1  0   1  0  0       0  0 -1   0 -1  0  -1  0  0
                       1 -1  0   0 -1  0   0 -1  1      -1  1  0   0  1  0   0  1 -1
                       0  0 -1   1  0 -1   0  1 -1       0  0  1  -1  0  1   0 -1  1
                      -1  1  0  -1  0  1  -1  0  0       1 -1  0   1  0 -1   1  0  0
           timopt          -1
            typat      1  2
              wtk        0.00195    0.01563    0.01563    0.01563    0.00781    0.01172
                         0.04688    0.04688    0.04688    0.04688    0.04688    0.02344
                         0.01172    0.04688    0.04688    0.04688    0.02344    0.01172
                         0.04688    0.02344    0.00586    0.04688    0.09375    0.04688
                         0.04688    0.09375    0.04688    0.02344    0.01172
           xangst      0.0000000000E+00  0.0000000000E+00  0.0000000000E+00
                       2.1263588488E+00  2.1263588488E+00  2.1263588488E+00
            xcart      0.0000000000E+00  0.0000000000E+00  0.0000000000E+00
                       4.0182358845E+00  4.0182358845E+00  4.0182358845E+00
             xred      0.0000000000E+00  0.0000000000E+00  0.0000000000E+00
                       5.0000000000E-01  5.0000000000E-01  5.0000000000E-01
            znucl        3.00000    9.00000

================================================================================

 Test the timer : 
  a combined call timab(*,1,tsec) + timab(*,2,tsec) is 
- CPU time =    6.1323E-07 sec,    Wall time =    6.1328E-07 sec

- Total cpu        time (s,m,h):       8519.9      142.00      2.367
- Total wall clock time (s,m,h):       8542.2      142.37      2.373
-
- For major independent code sections, cpu and wall times (sec),
-  as well as % of the time and number of calls for node 0
-
-<BEGIN_TIMER mpi_nprocs = 128, omp_nthreads = 1, mpi_rank = 0>
- cpu_time =           66.2, wall_time =           66.8
-
- routine                            cpu     %          wall     %      number of calls Gflops    Speedup Efficacity
-                                                                        (-1=no count)
- sigma/=fourdp                    14.699   0.2        14.765   0.2              1      -1.00        1.00       1.00
- wfd_read_wfk                      2.621   0.0         2.634   0.0              2      -1.00        0.99       0.99
- pspini                            0.505   0.0         0.525   0.0              2      -1.00        0.96       0.96
- abinit(2)                         0.132   0.0         0.162   0.0              1      -1.00        0.81       0.81
- timing timab                      0.119   0.0         0.119   0.0             14      -1.00        1.00       1.00
- invars2                           0.051   0.0         0.051   0.0              2      -1.00        1.00       1.00
- fourdp                            0.036   0.0         0.066   0.0             34      -1.00        0.54       0.54
- xc:pot/=fourdp                    0.034   0.0         0.034   0.0              3      -1.00        0.99       0.99
- ewald                             0.021   0.0         0.021   0.0              2      -1.00        1.00       1.00
- mkffnl                            0.012   0.0         0.012   0.0             29      -1.00        1.00       1.00
- others (145)                      0.013   0.0         0.013   0.0             -1      -1.00        1.00       1.00
-<END_TIMER>
-
- subtotal                         18.242   0.2        18.403   0.2                                  0.99       0.99

- For major independent code sections, cpu and wall times (sec),
- as well as % of the total time and number of calls 

-<BEGIN_TIMER mpi_nprocs = 128, omp_nthreads = 1, mpi_rank = world>
- cpu_time =        8519.9, wall_time =        8542.2
-
- routine                            cpu     %          wall     %      number of calls Gflops    Speedup Efficacity
-                                                                        (-1=no count)
- sigma/=fourdp                  1868.700  21.9      1869.461  21.9            128      -1.00        1.00       1.00
- wfd_read_wfk                    336.993   4.0       337.123   3.9            256      -1.00        1.00       1.00
- pspini                           64.325   0.8        65.442   0.8            256      -1.00        0.98       0.98
- timing timab                     14.635   0.2        14.636   0.2           1792      -1.00        1.00       1.00
- abinit(2)                         8.480   0.1         8.655   0.1            128      -1.00        0.98       0.98
- invars2                           6.403   0.1         6.405   0.1            256      -1.00        1.00       1.00
- fourdp                            4.996   0.1         8.441   0.1           4352      -1.00        0.59       0.59
- xc:pot/=fourdp                    4.045   0.0         4.059   0.0            384      -1.00        1.00       1.00
- ewald                             2.600   0.0         2.602   0.0            256      -1.00        1.00       1.00
- mkffnl                            1.168   0.0         1.162   0.0           3712      -1.00        1.01       1.01
- mkcore                            0.859   0.0         0.859   0.0            256      -1.00        1.00       1.00
- kpgsph                            0.492   0.0         0.491   0.0          38202      -1.00        1.00       1.00
- symrhg(no FFT)                    0.263   0.0         0.264   0.0            256      -1.00        1.00       1.00
- others (142)                      0.000   0.0         0.000   0.0             -1      -1.00        0.00       0.00
-<END_TIMER>

- subtotal                       2313.960  27.2      2319.599  27.2                                  1.00       1.00

 Partitioning of abinit
- abinit                         8519.855 100.0      8542.201 100.0            128                   1.00       1.00
 
- abinit(1)                        24.564   0.3        29.057   0.3            128                   0.85       0.85
- abinit(2)                         8.480   0.1         8.655   0.1            128                   0.98       0.98
- indefo+macroin+invars2m           6.691   0.1         6.693   0.1            128                   1.00       1.00
- abinit(4)                        30.976   0.4        32.800   0.4            128                   0.94       0.94
- abinit(5)                        13.670   0.2        13.712   0.2            128                   1.00       1.00
- driver                         8449.909  99.2      8466.328  99.1            128                   1.00       1.00
- timing timab                     14.635   0.2        14.636   0.2           1792                   1.00       1.00

- subtotal                       8519.855 100.0      8542.201 100.0                                  1.00       1.00

 Partitioning of driver
- driver                         8449.909  99.2      8466.328  99.1            128                   1.00       1.00
 
- driver(bef. select case)          4.275   0.1        10.902   0.1            256                   0.39       0.39
- screening                      6555.721  76.9      6564.697  76.9            128                   1.00       1.00
- sigma                          1868.790  21.9      1869.551  21.9            128                   1.00       1.00
- (other)                          20.799   0.2        20.839   0.2             -1                   1.00       1.00

- subtotal                       8449.909  99.2      8466.328  99.1                                  1.00       1.00

 Partitioning of screening
- screening                      6555.721  76.9      6564.697  76.9            128                   1.00       1.00
 
- screening(init1)                196.460   2.3       197.961   2.3            128                   0.99       0.99
- screening(wfs)                  226.750   2.7       226.912   2.7            128                   1.00       1.00
- screening(1)                      7.620   0.1         7.622   0.1            128                   1.00       1.00
- screening(density)               27.946   0.3        33.798   0.4            128                   0.83       0.83
- screening(2)                      4.814   0.1         4.837   0.1            128                   1.00       1.00
- screening(cchi0q0)              103.029   1.2       103.127   1.2            128                   1.00       1.00
- screening(cchi0)               5942.780  69.8      5943.924  69.6           3584                   1.00       1.00
- screening(q-loop,end)            45.634   0.5        45.831   0.5           3712                   1.00       1.00

- subtotal                       6555.161  76.9      6564.143  76.8                                  1.00       1.00

 Partitioning of sigma
- sigma                          1868.790  21.9      1869.551  21.9            128                   1.00       1.00
 
- sigma(Init1)                      4.974   0.1         4.975   0.1            256                   1.00       1.00
- setup_sigma                      84.200   1.0        84.325   1.0            128                   1.00       1.00
- sigma(rdkss)                    116.175   1.4       116.192   1.4            128                   1.00       1.00
- sigma(Init2)                      2.453   0.0         2.460   0.0            128                   1.00       1.00
- sigma(make_vhxc)                 18.714   0.2        18.716   0.2            128                   1.00       1.00
- sigma(vHxc_me)                    3.480   0.0         3.528   0.0            128                   0.99       0.99
- sigma(hqp_init)                  24.653   0.3        24.659   0.3            128                   1.00       1.00
- sigma(getW)                      17.242   0.2        17.246   0.2            128                   1.00       1.00
- sigma(calc_sigx_me)             126.041   1.5       126.108   1.5            128                   1.00       1.00
- sigma(calc_sigc_me)            1468.487  17.2      1468.774  17.2            256                   1.00       1.00

- subtotal                       1866.771  21.9      1867.368  21.9                                  1.00       1.00

 Partitioning of calc_sigc_me
- calc_sigc_me                   1468.487  17.2      1468.774  17.2            256                   1.00       1.00
 
- calc_sigc_me(Init)               23.245   0.3        23.284   0.3            256                   1.00       1.00
- calc_sigc_me(Init q)              2.746   0.0         2.753   0.0          11264                   1.00       1.00
- calc_sigc_me(loop)             1332.574  15.6      1332.730  15.6          11264                   1.00       1.00
- calc_sigc_me(xmpi_sum)          109.450   1.3       109.504   1.3            256                   1.00       1.00

- subtotal                       1468.431  17.2      1468.727  17.2                                  1.00       1.00

 Partitioning of  fourdp (upwards partitioning)
- fourdp                            4.996   0.1         8.441   0.1           4352                   0.59       0.59
 
- fourdp%(other)                    4.830   0.1         8.275   0.1           4096                   0.58       0.58

- subtotal                          4.996   0.1         8.441   0.1                                  0.59       0.59
-
-Synchronisation (=leave_test) and MPI calls 
- communic.MPI                      1.494   0.0         1.509   0.0            128                   0.99       0.99
-
- subtotal                          0.000   0.0         0.000   0.0                                  0.00       0.00

 Additional information
- timana(1)                         0.113   0.0         0.115   0.0            128                   0.98       0.98
- total timab                      15.158   0.2        15.160   0.2       25796858                   1.00       1.00
- xc:fourdp                         2.213   0.0         2.210   0.0           3072                   1.00       1.00
- calc_sigc_me(1)             2582927.234******  17065174.176******          42240                   0.15       0.15
- calc_sigc_me(rho_tw_g)           49.405   0.6        49.435   0.6          42240                   1.00       1.00
- calc_sigc_me(2)                1280.345  15.0      1280.688  15.0         351840                   1.00       1.00
- calc_sigc_me(sigma_me)            0.501   0.0         0.503   0.0         351840                   1.00       1.00
- cchi0                          5942.673  69.8      5943.831  69.6           3584                   1.00       1.00

 timana : in multi dataset mode, the more detailed analysis is not done.

================================================================================

 Suggested references for the acknowledgment of ABINIT usage.

 The users of ABINIT have little formal obligations with respect to the ABINIT group
 (those specified in the GNU General Public License, http://www.gnu.org/copyleft/gpl.txt).
 However, it is common practice in the scientific literature,
 to acknowledge the efforts of people that have made the research possible.
 In this spirit, please find below suggested citations of work written by ABINIT developers,
 corresponding to implementations inside of ABINIT that you have used in the present run.
 Note also that it will be of great value to readers of publications presenting these results,
 to read papers enabling them to understand the theoretical formalism and details
 of the ABINIT implementation.
 For information on why they are suggested, see also https://docs.abinit.org/theory/acknowledgments.
-
- [1] The Abinit project: Impact, environment and recent developments.
- Computer Phys. Comm. 248, 107042 (2020).
- X.Gonze, B. Amadon, G. Antonius, F.Arnardi, L.Baguet, J.-M.Beuken,
- J.Bieder, F.Bottin, J.Bouchet, E.Bousquet, N.Brouwer, F.Bruneval,
- G.Brunin, T.Cavignac, J.-B. Charraud, Wei Chen, M.Cote, S.Cottenier,
- J.Denier, G.Geneste, Ph.Ghosez, M.Giantomassi, Y.Gillet, O.Gingras,
- D.R.Hamann, G.Hautier, Xu He, N.Helbig, N.Holzwarth, Y.Jia, F.Jollet,
- W.Lafargue-Dit-Hauret, K.Lejaeghere, M.A.L.Marques, A.Martin, C.Martins,
- H.P.C. Miranda, F.Naccarato, K. Persson, G.Petretto, V.Planes, Y.Pouillon,
- S.Prokhorenko, F.Ricci, G.-M.Rignanese, A.H.Romero, M.M.Schmitt, M.Torrent,
- M.J.van Setten, B.Van Troeye, M.J.Verstraete, G.Zerah and J.W.Zwanzig
- Comment: the fifth generic paper describing the ABINIT project.
- Note that a version of this paper, that is not formatted for Computer Phys. Comm. 
- is available at https://www.abinit.org/sites/default/files/ABINIT20.pdf .
- The licence allows the authors to put it on the Web.
- DOI and bibtex: see https://docs.abinit.org/theory/bibliography/#gonze2020
-
- [2] Optimized norm-conserving Vanderbilt pseudopotentials.
- D.R. Hamann, Phys. Rev. B 88, 085117 (2013).
- Comment: Some pseudopotential generated using the ONCVPSP code were used.
- DOI and bibtex: see https://docs.abinit.org/theory/bibliography/#hamann2013
-
- [3] ABINIT: Overview, and focus on selected capabilities
- J. Chem. Phys. 152, 124102 (2020).
- A. Romero, D.C. Allan, B. Amadon, G. Antonius, T. Applencourt, L.Baguet,
- J.Bieder, F.Bottin, J.Bouchet, E.Bousquet, F.Bruneval,
- G.Brunin, D.Caliste, M.Cote,
- J.Denier, C. Dreyer, Ph.Ghosez, M.Giantomassi, Y.Gillet, O.Gingras,
- D.R.Hamann, G.Hautier, F.Jollet, G. Jomard,
- A.Martin, 
- H.P.C. Miranda, F.Naccarato, G.Petretto, N.A. Pike, V.Planes,
- S.Prokhorenko, T. Rangel, F.Ricci, G.-M.Rignanese, M.Royo, M.Stengel, M.Torrent,
- M.J.van Setten, B.Van Troeye, M.J.Verstraete, J.Wiktor, J.W.Zwanziger, and X.Gonze.
- Comment: a global overview of ABINIT, with focus on selected capabilities .
- Note that a version of this paper, that is not formatted for J. Chem. Phys 
- is available at https://www.abinit.org/sites/default/files/ABINIT20_JPC.pdf .
- The licence allows the authors to put it on the Web.
- DOI and bibtex: see https://docs.abinit.org/theory/bibliography/#romero2020
-
- [4] Recent developments in the ABINIT software package.
- Computer Phys. Comm. 205, 106 (2016).
- X.Gonze, F.Jollet, F.Abreu Araujo, D.Adams, B.Amadon, T.Applencourt,
- C.Audouze, J.-M.Beuken, J.Bieder, A.Bokhanchuk, E.Bousquet, F.Bruneval
- D.Caliste, M.Cote, F.Dahm, F.Da Pieve, M.Delaveau, M.Di Gennaro,
- B.Dorado, C.Espejo, G.Geneste, L.Genovese, A.Gerossier, M.Giantomassi,
- Y.Gillet, D.R.Hamann, L.He, G.Jomard, J.Laflamme Janssen, S.Le Roux,
- A.Levitt, A.Lherbier, F.Liu, I.Lukacevic, A.Martin, C.Martins,
- M.J.T.Oliveira, S.Ponce, Y.Pouillon, T.Rangel, G.-M.Rignanese,
- A.H.Romero, B.Rousseau, O.Rubel, A.A.Shukri, M.Stankovski, M.Torrent,
- M.J.Van Setten, B.Van Troeye, M.J.Verstraete, D.Waroquier, J.Wiktor,
- B.Xu, A.Zhou, J.W.Zwanziger.
- Comment: the fourth generic paper describing the ABINIT project.
- Note that a version of this paper, that is not formatted for Computer Phys. Comm. 
- is available at https://www.abinit.org/sites/default/files/ABINIT16.pdf .
- The licence allows the authors to put it on the Web.
- DOI and bibtex: see https://docs.abinit.org/theory/bibliography/#gonze2016
-
- And optionally:
-
- [5] ABINIT: First-principles approach of materials and nanosystem properties.
- Computer Phys. Comm. 180, 2582-2615 (2009).
- X. Gonze, B. Amadon, P.-M. Anglade, J.-M. Beuken, F. Bottin, P. Boulanger, F. Bruneval,
- D. Caliste, R. Caracas, M. Cote, T. Deutsch, L. Genovese, Ph. Ghosez, M. Giantomassi
- S. Goedecker, D.R. Hamann, P. Hermet, F. Jollet, G. Jomard, S. Leroux, M. Mancini, S. Mazevet,
- M.J.T. Oliveira, G. Onida, Y. Pouillon, T. Rangel, G.-M. Rignanese, D. Sangalli, R. Shaltaf,
- M. Torrent, M.J. Verstraete, G. Zerah, J.W. Zwanziger
- Comment: the third generic paper describing the ABINIT project.
- Note that a version of this paper, that is not formatted for Computer Phys. Comm. 
- is available at https://www.abinit.org/sites/default/files/ABINIT_CPC_v10.pdf .
- The licence allows the authors to put it on the Web.
- DOI and bibtex: see https://docs.abinit.org/theory/bibliography/#gonze2009
-
- Proc.   0 individual time (sec): cpu=         66.2  wall=         66.8

================================================================================

 Calculation completed.
.Delivered   0 WARNINGs and   2 COMMENTs to log file.
+Overall time at end (sec) : cpu=       8525.1  wall=       8547.5
