
.Version 9.9.2 of ABINIT 
.(MPI version, prepared for a x86_64_linux_gnu11.2 computer) 

.Copyright (C) 1998-2022 ABINIT group . 
 ABINIT comes with ABSOLUTELY NO WARRANTY.
 It is free software, and you are welcome to redistribute it
 under certain conditions (GNU General Public License,
 see ~abinit/COPYING or http://www.gnu.org/copyleft/gpl.txt).

 ABINIT is a project of the Universite Catholique de Louvain,
 Corning Inc. and other collaborators, see ~abinit/doc/developers/contributors.txt .
 Please read https://docs.abinit.org/theory/acknowledgments for suggested
 acknowledgments of the ABINIT effort.
 For more information, see https://www.abinit.org .

.Starting date : Fri 17 Feb 2023.
- ( at 10h04 )
  
- input  file    -> run.abi
- output file    -> run.abo
- root for input  files -> ../indata_gs
- root for output files -> outdata_gwr


 DATASET    1 : space group Fm -3 m (#225); Bravais cF (face-center cubic)
================================================================================
 Values of the parameters that define the memory need for DATASET  1.
     intxc =       0    ionmov =       0      iscf =       7    lmnmax =       5
     lnmax =       5     mgfft =      36  mpssoang =       3    mqgrid =    3001
     natom =       2  nloc_mem =       1    nspden =       1   nspinor =       1
    nsppol =       1      nsym =      48    n1xccc =    2501    ntypat =       2
    occopt =       1   xclevel =       2
-    mband =         480        mffmem =           1         mkmem =           1
       mpw =        1588          nfft =       46656          nkpt =          29
================================================================================
P This job should need less than                      34.905 Mbytes of memory.
  Rough estimation (10% accuracy) of disk space for files :
_ WF disk file :    337.297 Mbytes ; DEN or POT disk file :      0.358 Mbytes.
================================================================================


 DATASET    2 : space group Fm -3 m (#225); Bravais cF (face-center cubic)
================================================================================
 Values of the parameters that define the memory need for DATASET  2.
     intxc =       0    ionmov =       0      iscf =       7    lmnmax =       5
     lnmax =       5     mgfft =      36  mpssoang =       3    mqgrid =    3001
     natom =       2  nloc_mem =       1    nspden =       1   nspinor =       1
    nsppol =       1      nsym =      48    n1xccc =    2501    ntypat =       2
    occopt =       1   xclevel =       2
-    mband =         480        mffmem =           1         mkmem =           1
       mpw =        1588          nfft =       46656          nkpt =          29
================================================================================
P This job should need less than                      34.905 Mbytes of memory.
  Rough estimation (10% accuracy) of disk space for files :
_ WF disk file :    337.297 Mbytes ; DEN or POT disk file :      0.358 Mbytes.
================================================================================


 DATASET    3 : space group Fm -3 m (#225); Bravais cF (face-center cubic)
================================================================================
 Values of the parameters that define the memory need for DATASET  3.
     intxc =       0    ionmov =       0      iscf =       7    lmnmax =       5
     lnmax =       5     mgfft =      36  mpssoang =       3    mqgrid =    3001
     natom =       2  nloc_mem =       1    nspden =       1   nspinor =       1
    nsppol =       1      nsym =      48    n1xccc =    2501    ntypat =       2
    occopt =       1   xclevel =       2
-    mband =         480        mffmem =           1         mkmem =           1
       mpw =        1588          nfft =       46656          nkpt =          29
================================================================================
P This job should need less than                      34.905 Mbytes of memory.
  Rough estimation (10% accuracy) of disk space for files :
_ WF disk file :    337.297 Mbytes ; DEN or POT disk file :      0.358 Mbytes.
================================================================================


 DATASET    4 : space group Fm -3 m (#225); Bravais cF (face-center cubic)
================================================================================
 Values of the parameters that define the memory need for DATASET  4.
     intxc =       0    ionmov =       0      iscf =       7    lmnmax =       5
     lnmax =       5     mgfft =      36  mpssoang =       3    mqgrid =    3001
     natom =       2  nloc_mem =       1    nspden =       1   nspinor =       1
    nsppol =       1      nsym =      48    n1xccc =    2501    ntypat =       2
    occopt =       1   xclevel =       2
-    mband =         480        mffmem =           1         mkmem =           1
       mpw =        1588          nfft =       46656          nkpt =          29
================================================================================
P This job should need less than                      34.905 Mbytes of memory.
  Rough estimation (10% accuracy) of disk space for files :
_ WF disk file :    337.297 Mbytes ; DEN or POT disk file :      0.358 Mbytes.
================================================================================


 DATASET    5 : space group Fm -3 m (#225); Bravais cF (face-center cubic)
================================================================================
 Values of the parameters that define the memory need for DATASET  5.
     intxc =       0    ionmov =       0      iscf =       7    lmnmax =       5
     lnmax =       5     mgfft =      36  mpssoang =       3    mqgrid =    3001
     natom =       2  nloc_mem =       1    nspden =       1   nspinor =       1
    nsppol =       1      nsym =      48    n1xccc =    2501    ntypat =       2
    occopt =       1   xclevel =       2
-    mband =         480        mffmem =           1         mkmem =           1
       mpw =        1588          nfft =       46656          nkpt =          29
================================================================================
P This job should need less than                      34.905 Mbytes of memory.
  Rough estimation (10% accuracy) of disk space for files :
_ WF disk file :    337.297 Mbytes ; DEN or POT disk file :      0.358 Mbytes.
================================================================================


 DATASET    6 : space group Fm -3 m (#225); Bravais cF (face-center cubic)
================================================================================
 Values of the parameters that define the memory need for DATASET  6.
     intxc =       0    ionmov =       0      iscf =       7    lmnmax =       5
     lnmax =       5     mgfft =      36  mpssoang =       3    mqgrid =    3001
     natom =       2  nloc_mem =       1    nspden =       1   nspinor =       1
    nsppol =       1      nsym =      48    n1xccc =    2501    ntypat =       2
    occopt =       1   xclevel =       2
-    mband =         480        mffmem =           1         mkmem =           1
       mpw =        1588          nfft =       46656          nkpt =          29
================================================================================
P This job should need less than                      34.905 Mbytes of memory.
  Rough estimation (10% accuracy) of disk space for files :
_ WF disk file :    337.297 Mbytes ; DEN or POT disk file :      0.358 Mbytes.
================================================================================


 DATASET    7 : space group Fm -3 m (#225); Bravais cF (face-center cubic)
================================================================================
 Values of the parameters that define the memory need for DATASET  7.
     intxc =       0    ionmov =       0      iscf =       7    lmnmax =       5
     lnmax =       5     mgfft =      36  mpssoang =       3    mqgrid =    3001
     natom =       2  nloc_mem =       1    nspden =       1   nspinor =       1
    nsppol =       1      nsym =      48    n1xccc =    2501    ntypat =       2
    occopt =       1   xclevel =       2
-    mband =         480        mffmem =           1         mkmem =           1
       mpw =        1588          nfft =       46656          nkpt =          29
================================================================================
P This job should need less than                      34.905 Mbytes of memory.
  Rough estimation (10% accuracy) of disk space for files :
_ WF disk file :    337.297 Mbytes ; DEN or POT disk file :      0.358 Mbytes.
================================================================================


 DATASET    8 : space group Fm -3 m (#225); Bravais cF (face-center cubic)
================================================================================
 Values of the parameters that define the memory need for DATASET  8.
     intxc =       0    ionmov =       0      iscf =       7    lmnmax =       5
     lnmax =       5     mgfft =      36  mpssoang =       3    mqgrid =    3001
     natom =       2  nloc_mem =       1    nspden =       1   nspinor =       1
    nsppol =       1      nsym =      48    n1xccc =    2501    ntypat =       2
    occopt =       1   xclevel =       2
-    mband =         480        mffmem =           1         mkmem =           1
       mpw =        1588          nfft =       46656          nkpt =          29
================================================================================
P This job should need less than                      34.905 Mbytes of memory.
  Rough estimation (10% accuracy) of disk space for files :
_ WF disk file :    337.297 Mbytes ; DEN or POT disk file :      0.358 Mbytes.
================================================================================


 DATASET    9 : space group Fm -3 m (#225); Bravais cF (face-center cubic)
================================================================================
 Values of the parameters that define the memory need for DATASET  9.
     intxc =       0    ionmov =       0      iscf =       7    lmnmax =       5
     lnmax =       5     mgfft =      36  mpssoang =       3    mqgrid =    3001
     natom =       2  nloc_mem =       1    nspden =       1   nspinor =       1
    nsppol =       1      nsym =      48    n1xccc =    2501    ntypat =       2
    occopt =       1   xclevel =       2
-    mband =         480        mffmem =           1         mkmem =           1
       mpw =        1588          nfft =       46656          nkpt =          29
================================================================================
P This job should need less than                      34.905 Mbytes of memory.
  Rough estimation (10% accuracy) of disk space for files :
_ WF disk file :    337.297 Mbytes ; DEN or POT disk file :      0.358 Mbytes.
================================================================================


 DATASET   10 : space group Fm -3 m (#225); Bravais cF (face-center cubic)
================================================================================
 Values of the parameters that define the memory need for DATASET 10.
     intxc =       0    ionmov =       0      iscf =       7    lmnmax =       5
     lnmax =       5     mgfft =      36  mpssoang =       3    mqgrid =    3001
     natom =       2  nloc_mem =       1    nspden =       1   nspinor =       1
    nsppol =       1      nsym =      48    n1xccc =    2501    ntypat =       2
    occopt =       1   xclevel =       2
-    mband =         480        mffmem =           1         mkmem =           1
       mpw =        1588          nfft =       46656          nkpt =          29
================================================================================
P This job should need less than                      34.905 Mbytes of memory.
  Rough estimation (10% accuracy) of disk space for files :
_ WF disk file :    337.297 Mbytes ; DEN or POT disk file :      0.358 Mbytes.
================================================================================

--------------------------------------------------------------------------------
------------- Echo of variables that govern the present computation ------------
--------------------------------------------------------------------------------
-
- outvars: echo of selected default values                                      
-   iomode0 =  0 , fftalg0 =312 , wfoptalg0 =  0
-
- outvars: echo of global parameters not present in the input file              
-  max_nthreads =    0
-
 -outvars: echo values of preprocessed input variables --------
            acell      8.0364717690E+00  8.0364717690E+00  8.0364717690E+00 Bohr
              amu      6.94100000E+00  1.89984032E+01
             bdgw           1       8       1       8
           diemac      1.20000000E+01
             ecut      4.00000000E+01 Hartree
          ecuteps      1.20000000E+01 Hartree
         ecutsigx      4.00000000E+01 Hartree
-          fftalg         312
-     gwr_np_kgts        4   64    2    1
-  gwr_ucsc_batch        4    4
         gwr_ntau1          6
         gwr_ntau2          8
         gwr_ntau3         10
         gwr_ntau4         12
         gwr_ntau5         14
         gwr_ntau6         16
         gwr_ntau7         18
         gwr_ntau8         20
         gwr_ntau9         22
         gwr_ntau10        24
   gwr_sigma_algo           2
           istwfk        1    0    0    0    1    0    0    0    0    0
                         0    0    0    0    0    0    0    0    0    0
                         1    0    0    0    0    0    0    0    0
              ixc          11
           jdtset        1    2    3    4    5    6    7    8    9   10
              kpt      0.00000000E+00  0.00000000E+00  0.00000000E+00
                       1.25000000E-01  0.00000000E+00  0.00000000E+00
                       2.50000000E-01  0.00000000E+00  0.00000000E+00
                       3.75000000E-01  0.00000000E+00  0.00000000E+00
                       5.00000000E-01  0.00000000E+00  0.00000000E+00
                       1.25000000E-01  1.25000000E-01  0.00000000E+00
                       2.50000000E-01  1.25000000E-01  0.00000000E+00
                       3.75000000E-01  1.25000000E-01  0.00000000E+00
                       5.00000000E-01  1.25000000E-01  0.00000000E+00
                      -3.75000000E-01  1.25000000E-01  0.00000000E+00
                      -2.50000000E-01  1.25000000E-01  0.00000000E+00
                      -1.25000000E-01  1.25000000E-01  0.00000000E+00
                       2.50000000E-01  2.50000000E-01  0.00000000E+00
                       3.75000000E-01  2.50000000E-01  0.00000000E+00
                       5.00000000E-01  2.50000000E-01  0.00000000E+00
                      -3.75000000E-01  2.50000000E-01  0.00000000E+00
                      -2.50000000E-01  2.50000000E-01  0.00000000E+00
                       3.75000000E-01  3.75000000E-01  0.00000000E+00
                       5.00000000E-01  3.75000000E-01  0.00000000E+00
                      -3.75000000E-01  3.75000000E-01  0.00000000E+00
                       5.00000000E-01  5.00000000E-01  0.00000000E+00
                       3.75000000E-01  2.50000000E-01  1.25000000E-01
                       5.00000000E-01  2.50000000E-01  1.25000000E-01
                      -3.75000000E-01  2.50000000E-01  1.25000000E-01
                       5.00000000E-01  3.75000000E-01  1.25000000E-01
                      -3.75000000E-01  3.75000000E-01  1.25000000E-01
                      -2.50000000E-01  3.75000000E-01  1.25000000E-01
                      -3.75000000E-01  5.00000000E-01  1.25000000E-01
                      -2.50000000E-01  5.00000000E-01  2.50000000E-01
            kptgw      0.00000000E+00  0.00000000E+00  0.00000000E+00
                       5.00000000E-01  5.00000000E-01  0.00000000E+00
         kptrlatt        8    0    0      0    8    0      0    0    8
          kptrlen      4.54611495E+01
P           mkmem           1
            natom           2
            nband         480
           ndtset          10
            ngfft          36      36      36
             nkpt          29
           nkptgw           2
            nstep          50
             nsym          48
           ntypat           2
              occ      2.000000  2.000000  2.000000  2.000000  2.000000  0.000000
                       0.000000  0.000000  0.000000  0.000000  0.000000  0.000000
                       0.000000  0.000000  0.000000  0.000000  0.000000  0.000000
                       0.000000  0.000000  0.000000  0.000000  0.000000  0.000000
                       0.000000  0.000000  0.000000  0.000000  0.000000  0.000000
                       0.000000  0.000000  0.000000  0.000000  0.000000  0.000000
                       0.000000  0.000000  0.000000  0.000000  0.000000  0.000000
                       0.000000  0.000000  0.000000  0.000000  0.000000  0.000000
                       0.000000  0.000000  0.000000  0.000000  0.000000  0.000000
                       0.000000  0.000000  0.000000  0.000000  0.000000  0.000000
                       0.000000  0.000000  0.000000  0.000000  0.000000  0.000000
                       0.000000  0.000000  0.000000  0.000000  0.000000  0.000000
                       0.000000  0.000000  0.000000  0.000000  0.000000  0.000000
                       0.000000  0.000000  0.000000  0.000000  0.000000  0.000000
                       0.000000  0.000000  0.000000  0.000000  0.000000  0.000000
                       0.000000  0.000000  0.000000  0.000000  0.000000  0.000000
                       0.000000  0.000000  0.000000  0.000000  0.000000  0.000000
                       0.000000  0.000000  0.000000  0.000000  0.000000  0.000000
                       0.000000  0.000000  0.000000  0.000000  0.000000  0.000000
                       0.000000  0.000000  0.000000  0.000000  0.000000  0.000000
                       0.000000  0.000000  0.000000  0.000000  0.000000  0.000000
                       0.000000  0.000000  0.000000  0.000000  0.000000  0.000000
                       0.000000  0.000000  0.000000  0.000000  0.000000  0.000000
                       0.000000  0.000000  0.000000  0.000000  0.000000  0.000000
                       0.000000  0.000000  0.000000  0.000000  0.000000  0.000000
                       0.000000  0.000000  0.000000  0.000000  0.000000  0.000000
                       0.000000  0.000000  0.000000  0.000000  0.000000  0.000000
                       0.000000  0.000000  0.000000  0.000000  0.000000  0.000000
                       0.000000  0.000000  0.000000  0.000000  0.000000  0.000000
                       0.000000  0.000000  0.000000  0.000000  0.000000  0.000000
                       0.000000  0.000000  0.000000  0.000000  0.000000  0.000000
                       0.000000  0.000000  0.000000  0.000000  0.000000  0.000000
                       0.000000  0.000000  0.000000  0.000000  0.000000  0.000000
                       0.000000  0.000000  0.000000  0.000000  0.000000  0.000000
                       0.000000  0.000000  0.000000  0.000000  0.000000  0.000000
                       0.000000  0.000000  0.000000  0.000000  0.000000  0.000000
                       0.000000  0.000000  0.000000  0.000000  0.000000  0.000000
                       0.000000  0.000000  0.000000  0.000000  0.000000  0.000000
                       0.000000  0.000000  0.000000  0.000000  0.000000  0.000000
                       0.000000  0.000000  0.000000  0.000000  0.000000  0.000000
                       0.000000  0.000000  0.000000  0.000000  0.000000  0.000000
                       0.000000  0.000000  0.000000  0.000000  0.000000  0.000000
                       0.000000  0.000000  0.000000  0.000000  0.000000  0.000000
                       0.000000  0.000000  0.000000  0.000000  0.000000  0.000000
                       0.000000  0.000000  0.000000  0.000000  0.000000  0.000000
                       0.000000  0.000000  0.000000  0.000000  0.000000  0.000000
                       0.000000  0.000000  0.000000  0.000000  0.000000  0.000000
                       0.000000  0.000000  0.000000  0.000000  0.000000  0.000000
                       0.000000  0.000000  0.000000  0.000000  0.000000  0.000000
                       0.000000  0.000000  0.000000  0.000000  0.000000  0.000000
                       0.000000  0.000000  0.000000  0.000000  0.000000  0.000000
                       0.000000  0.000000  0.000000  0.000000  0.000000  0.000000
                       0.000000  0.000000  0.000000  0.000000  0.000000  0.000000
                       0.000000  0.000000  0.000000  0.000000  0.000000  0.000000
                       0.000000  0.000000  0.000000  0.000000  0.000000  0.000000
                       0.000000  0.000000  0.000000  0.000000  0.000000  0.000000
                       0.000000  0.000000  0.000000  0.000000  0.000000  0.000000
                       0.000000  0.000000  0.000000  0.000000  0.000000  0.000000
                       0.000000  0.000000  0.000000  0.000000  0.000000  0.000000
                       0.000000  0.000000  0.000000  0.000000  0.000000  0.000000
                       0.000000  0.000000  0.000000  0.000000  0.000000  0.000000
                       0.000000  0.000000  0.000000  0.000000  0.000000  0.000000
                       0.000000  0.000000  0.000000  0.000000  0.000000  0.000000
                       0.000000  0.000000  0.000000  0.000000  0.000000  0.000000
                       0.000000  0.000000  0.000000  0.000000  0.000000  0.000000
                       0.000000  0.000000  0.000000  0.000000  0.000000  0.000000
                       0.000000  0.000000  0.000000  0.000000  0.000000  0.000000
                       0.000000  0.000000  0.000000  0.000000  0.000000  0.000000
                       0.000000  0.000000  0.000000  0.000000  0.000000  0.000000
                       0.000000  0.000000  0.000000  0.000000  0.000000  0.000000
                       0.000000  0.000000  0.000000  0.000000  0.000000  0.000000
                       0.000000  0.000000  0.000000  0.000000  0.000000  0.000000
                       0.000000  0.000000  0.000000  0.000000  0.000000  0.000000
                       0.000000  0.000000  0.000000  0.000000  0.000000  0.000000
                       0.000000  0.000000  0.000000  0.000000  0.000000  0.000000
                       0.000000  0.000000  0.000000  0.000000  0.000000  0.000000
                       0.000000  0.000000  0.000000  0.000000  0.000000  0.000000
                       0.000000  0.000000  0.000000  0.000000  0.000000  0.000000
                       0.000000  0.000000  0.000000  0.000000  0.000000  0.000000
                       0.000000  0.000000  0.000000  0.000000  0.000000  0.000000
        optdriver           6
            rprim      0.0000000000E+00  5.0000000000E-01  5.0000000000E-01
                       5.0000000000E-01  0.0000000000E+00  5.0000000000E-01
                       5.0000000000E-01  5.0000000000E-01  0.0000000000E+00
          spgroup         225
           symrel      1  0  0   0  1  0   0  0  1      -1  0  0   0 -1  0   0  0 -1
                       0 -1  1   0 -1  0   1 -1  0       0  1 -1   0  1  0  -1  1  0
                      -1  0  0  -1  0  1  -1  1  0       1  0  0   1  0 -1   1 -1  0
                       0  1 -1   1  0 -1   0  0 -1       0 -1  1  -1  0  1   0  0  1
                      -1  0  0  -1  1  0  -1  0  1       1  0  0   1 -1  0   1  0 -1
                       0 -1  1   1 -1  0   0 -1  0       0  1 -1  -1  1  0   0  1  0
                       1  0  0   0  0  1   0  1  0      -1  0  0   0  0 -1   0 -1  0
                       0  1 -1   0  0 -1   1  0 -1       0 -1  1   0  0  1  -1  0  1
                      -1  0  1  -1  1  0  -1  0  0       1  0 -1   1 -1  0   1  0  0
                       0 -1  0   1 -1  0   0 -1  1       0  1  0  -1  1  0   0  1 -1
                       1  0 -1   0  0 -1   0  1 -1      -1  0  1   0  0  1   0 -1  1
                       0  1  0   0  0  1   1  0  0       0 -1  0   0  0 -1  -1  0  0
                       1  0 -1   0  1 -1   0  0 -1      -1  0  1   0 -1  1   0  0  1
                       0 -1  0   0 -1  1   1 -1  0       0  1  0   0  1 -1  -1  1  0
                      -1  0  1  -1  0  0  -1  1  0       1  0 -1   1  0  0   1 -1  0
                       0  1  0   1  0  0   0  0  1       0 -1  0  -1  0  0   0  0 -1
                       0  0 -1   0  1 -1   1  0 -1       0  0  1   0 -1  1  -1  0  1
                       1 -1  0   0 -1  1   0 -1  0      -1  1  0   0  1 -1   0  1  0
                       0  0  1   1  0  0   0  1  0       0  0 -1  -1  0  0   0 -1  0
                      -1  1  0  -1  0  0  -1  0  1       1 -1  0   1  0  0   1  0 -1
                       0  0  1   0  1  0   1  0  0       0  0 -1   0 -1  0  -1  0  0
                       1 -1  0   0 -1  0   0 -1  1      -1  1  0   0  1  0   0  1 -1
                       0  0 -1   1  0 -1   0  1 -1       0  0  1  -1  0  1   0 -1  1
                      -1  1  0  -1  0  1  -1  0  0       1 -1  0   1  0 -1   1  0  0
           timopt          -1
            typat      1  2
              wtk        0.00195    0.01563    0.01563    0.01563    0.00781    0.01172
                         0.04688    0.04688    0.04688    0.04688    0.04688    0.02344
                         0.01172    0.04688    0.04688    0.04688    0.02344    0.01172
                         0.04688    0.02344    0.00586    0.04688    0.09375    0.04688
                         0.04688    0.09375    0.04688    0.02344    0.01172
           xangst      0.0000000000E+00  0.0000000000E+00  0.0000000000E+00
                       2.1263588488E+00  2.1263588488E+00  2.1263588488E+00
            xcart      0.0000000000E+00  0.0000000000E+00  0.0000000000E+00
                       4.0182358845E+00  4.0182358845E+00  4.0182358845E+00
             xred      0.0000000000E+00  0.0000000000E+00  0.0000000000E+00
                       5.0000000000E-01  5.0000000000E-01  5.0000000000E-01
            znucl        3.00000    9.00000

================================================================================

 chkinp: Checking input parameters for consistency, jdtset=   1.

 chkinp: Checking input parameters for consistency, jdtset=   2.

 chkinp: Checking input parameters for consistency, jdtset=   3.

 chkinp: Checking input parameters for consistency, jdtset=   4.

 chkinp: Checking input parameters for consistency, jdtset=   5.

 chkinp: Checking input parameters for consistency, jdtset=   6.

 chkinp: Checking input parameters for consistency, jdtset=   7.

 chkinp: Checking input parameters for consistency, jdtset=   8.

 chkinp: Checking input parameters for consistency, jdtset=   9.

 chkinp: Checking input parameters for consistency, jdtset=  10.

================================================================================
== DATASET  1 ==================================================================
-   mpi_nproc: 512, omp_nthreads: -1 (-1 if OMP is not activated)


--- !DatasetInfo
iteration_state: {dtset: 1, }
dimensions: {natom: 2, nkpt: 29, mband: 480, nsppol: 1, nspinor: 1, nspden: 1, mpw: 1588, }
cutoff_energies: {ecut:  40.0, pawecutdg:  -1.0, }
electrons: {nelect:   1.00000000E+01, charge:   0.00000000E+00, occopt:   1.00000000E+00, tsmear:   1.00000000E-02, }
meta: {optdriver: 6, }
...

 mkfilename: getwfk from: ../outdata_gs_DS2_WFK

 mkfilename: getden from: ../outdata_gs_DS1_DEN

 Exchange-correlation functional for the present dataset will be:
  GGA: Perdew-Burke-Ernzerhof functional - ixc=11
 Citation for XC functional:
  J.P.Perdew, K.Burke, M.Ernzerhof, PRL 77, 3865 (1996)

.Using single precision arithmetic; gwpc =  4

- Reading GS density from: ../outdata_gs_DS1_DEN




--- Pseudopotential description ------------------------------------------------
- pspini: atom type   1  psp file is ../Li.psp8
- pspatm: opening atomic psp file    ../Li.psp8
- Li    ONCVPSP-3.2.3.1  r_core=   1.40824   1.10935
-  3.00000   3.00000    170503                znucl, zion, pspdat
    8   11    1    4       400   0.00000      pspcod,pspxc,lmax,lloc,mmax,r2well
    3.99000000000000    0.00000000000000    0.00000000000000   rchrg,fchrg,qchrg
     nproj     2     2
     extension_switch     1
  pspatm : epsatm=    2.74345787
         --- l  ekb(1:nproj) -->
             0   -4.951544   -1.544797
             1   -2.250662   -0.474685
 pspatm: atomic psp has been read  and splines computed

- pspini: atom type   2  psp file is ../F.psp8
- pspatm: opening atomic psp file    ../F.psp8
- F     ONCVPSP-3.2.3.1  r_core=   1.30942   1.45782   1.60379
-  9.00000   7.00000    170504                znucl, zion, pspdat
    8   11    2    4       600   0.00000      pspcod,pspxc,lmax,lloc,mmax,r2well
    5.99000000000000    2.50000000000000    0.00000000000000   rchrg,fchrg,qchrg
     nproj     2     2     1
     extension_switch     1
  pspatm : epsatm=    4.87626060
         --- l  ekb(1:nproj) -->
             0    6.519403    1.070094
             1   -3.955629   -1.291931
             2   -2.441503
 pspatm: atomic psp has been read  and splines computed

   7.61971847E+01                                ecore*ucvol(ha*bohr**3)
--------------------------------------------------------------------------------

 Total charge density [el/Bohr^3]
)     Maximum=    2.7912E+00  at reduced coord.    0.0000    0.0000    0.0000
)     Minimum=    4.0719E-03  at reduced coord.    0.2500    0.2500    0.2500
   Integrated=    1.0000E+01
- Reading GS states from WFK file: ../outdata_gs_DS2_WFK
  Mapping kBZ --> kIBZ
 Legend: bz = TS(ibz) + g0 where isym is the index of the symrec operation S and itim is 1 if TR is used.
        BZ                                       IBZ                                       ibz  isym  itim  g0
     1  [ 0.0000E+00,  0.0000E+00,  0.0000E+00]  [ 0.0000E+00,  0.0000E+00,  0.0000E+00]     1     1     0  [0, 0, 0]
     2  [ 1.2500E-01,  0.0000E+00,  0.0000E+00]  [ 1.2500E-01,  0.0000E+00,  0.0000E+00]     2     1     0  [0, 0, 0]
     3  [-1.2500E-01,  0.0000E+00,  0.0000E+00]  [ 1.2500E-01,  0.0000E+00,  0.0000E+00]     2     2     0  [0, 0, 0]
     4  [ 0.0000E+00,  0.0000E+00, -1.2500E-01]  [ 1.2500E-01,  0.0000E+00,  0.0000E+00]     2     4     0  [0, 0, 0]
     5  [ 0.0000E+00,  1.2500E-01,  0.0000E+00]  [ 1.2500E-01,  0.0000E+00,  0.0000E+00]     2     7     0  [0, 0, 0]
     6  [ 1.2500E-01,  1.2500E-01,  1.2500E-01]  [ 1.2500E-01,  0.0000E+00,  0.0000E+00]     2     6     0  [0, 0, 0]
     7  [-1.2500E-01, -1.2500E-01, -1.2500E-01]  [ 1.2500E-01,  0.0000E+00,  0.0000E+00]     2     5     0  [0, 0, 0]
     8  [ 0.0000E+00, -1.2500E-01,  0.0000E+00]  [ 1.2500E-01,  0.0000E+00,  0.0000E+00]     2     8     0  [0, 0, 0]
     9  [ 0.0000E+00,  0.0000E+00,  1.2500E-01]  [ 1.2500E-01,  0.0000E+00,  0.0000E+00]     2     3     0  [0, 0, 0]
    10  [ 2.5000E-01,  0.0000E+00,  0.0000E+00]  [ 2.5000E-01,  0.0000E+00,  0.0000E+00]     3     1     0  [0, 0, 0]
    11  [ 2.5000E-01,  2.5000E-01,  2.5000E-01]  [ 2.5000E-01,  0.0000E+00,  0.0000E+00]     3     6     0  [0, 0, 0]
    12  [ 0.0000E+00,  2.5000E-01,  0.0000E+00]  [ 2.5000E-01,  0.0000E+00,  0.0000E+00]     3     7     0  [0, 0, 0]
    13  [ 0.0000E+00, -2.5000E-01,  0.0000E+00]  [ 2.5000E-01,  0.0000E+00,  0.0000E+00]     3     8     0  [0, 0, 0]
    14  [-2.5000E-01,  0.0000E+00,  0.0000E+00]  [ 2.5000E-01,  0.0000E+00,  0.0000E+00]     3     2     0  [0, 0, 0]
    15  [ 0.0000E+00,  0.0000E+00,  2.5000E-01]  [ 2.5000E-01,  0.0000E+00,  0.0000E+00]     3     3     0  [0, 0, 0]
    16  [ 0.0000E+00,  0.0000E+00, -2.5000E-01]  [ 2.5000E-01,  0.0000E+00,  0.0000E+00]     3     4     0  [0, 0, 0]
    17  [-2.5000E-01, -2.5000E-01, -2.5000E-01]  [ 2.5000E-01,  0.0000E+00,  0.0000E+00]     3     5     0  [0, 0, 0]
    18  [ 3.7500E-01,  0.0000E+00,  0.0000E+00]  [ 3.7500E-01,  0.0000E+00,  0.0000E+00]     4     1     0  [0, 0, 0]
    19  [-3.7500E-01, -3.7500E-01, -3.7500E-01]  [ 3.7500E-01,  0.0000E+00,  0.0000E+00]     4     5     0  [0, 0, 0]
    20  [ 0.0000E+00,  0.0000E+00, -3.7500E-01]  [ 3.7500E-01,  0.0000E+00,  0.0000E+00]     4     4     0  [0, 0, 0]
prtvol = 0, max 20 points are written


  Mapping qBZ --> qIBZ
 Legend: bz = TS(ibz) + g0 where isym is the index of the symrec operation S and itim is 1 if TR is used.
        BZ                                       IBZ                                       ibz  isym  itim  g0
     1  [ 0.0000E+00,  0.0000E+00,  0.0000E+00]  [ 0.0000E+00,  0.0000E+00,  0.0000E+00]     1     1     0  [0, 0, 0]
     2  [ 1.2500E-01,  0.0000E+00,  0.0000E+00]  [ 1.2500E-01,  0.0000E+00,  0.0000E+00]     2     1     0  [0, 0, 0]
     3  [-1.2500E-01,  0.0000E+00,  0.0000E+00]  [ 1.2500E-01,  0.0000E+00,  0.0000E+00]     2     2     0  [0, 0, 0]
     4  [ 0.0000E+00,  0.0000E+00, -1.2500E-01]  [ 1.2500E-01,  0.0000E+00,  0.0000E+00]     2     4     0  [0, 0, 0]
     5  [ 0.0000E+00,  1.2500E-01,  0.0000E+00]  [ 1.2500E-01,  0.0000E+00,  0.0000E+00]     2     7     0  [0, 0, 0]
     6  [ 1.2500E-01,  1.2500E-01,  1.2500E-01]  [ 1.2500E-01,  0.0000E+00,  0.0000E+00]     2     6     0  [0, 0, 0]
     7  [-1.2500E-01, -1.2500E-01, -1.2500E-01]  [ 1.2500E-01,  0.0000E+00,  0.0000E+00]     2     5     0  [0, 0, 0]
     8  [ 0.0000E+00, -1.2500E-01,  0.0000E+00]  [ 1.2500E-01,  0.0000E+00,  0.0000E+00]     2     8     0  [0, 0, 0]
     9  [ 0.0000E+00,  0.0000E+00,  1.2500E-01]  [ 1.2500E-01,  0.0000E+00,  0.0000E+00]     2     3     0  [0, 0, 0]
    10  [ 2.5000E-01,  0.0000E+00,  0.0000E+00]  [ 2.5000E-01,  0.0000E+00,  0.0000E+00]     3     1     0  [0, 0, 0]
    11  [ 2.5000E-01,  2.5000E-01,  2.5000E-01]  [ 2.5000E-01,  0.0000E+00,  0.0000E+00]     3     6     0  [0, 0, 0]
    12  [ 0.0000E+00,  2.5000E-01,  0.0000E+00]  [ 2.5000E-01,  0.0000E+00,  0.0000E+00]     3     7     0  [0, 0, 0]
    13  [ 0.0000E+00, -2.5000E-01,  0.0000E+00]  [ 2.5000E-01,  0.0000E+00,  0.0000E+00]     3     8     0  [0, 0, 0]
    14  [-2.5000E-01,  0.0000E+00,  0.0000E+00]  [ 2.5000E-01,  0.0000E+00,  0.0000E+00]     3     2     0  [0, 0, 0]
    15  [ 0.0000E+00,  0.0000E+00,  2.5000E-01]  [ 2.5000E-01,  0.0000E+00,  0.0000E+00]     3     3     0  [0, 0, 0]
    16  [ 0.0000E+00,  0.0000E+00, -2.5000E-01]  [ 2.5000E-01,  0.0000E+00,  0.0000E+00]     3     4     0  [0, 0, 0]
    17  [-2.5000E-01, -2.5000E-01, -2.5000E-01]  [ 2.5000E-01,  0.0000E+00,  0.0000E+00]     3     5     0  [0, 0, 0]
    18  [ 3.7500E-01,  0.0000E+00,  0.0000E+00]  [ 3.7500E-01,  0.0000E+00,  0.0000E+00]     4     1     0  [0, 0, 0]
    19  [-3.7500E-01, -3.7500E-01, -3.7500E-01]  [ 3.7500E-01,  0.0000E+00,  0.0000E+00]     4     5     0  [0, 0, 0]
    20  [ 0.0000E+00,  0.0000E+00, -3.7500E-01]  [ 3.7500E-01,  0.0000E+00,  0.0000E+00]     4     4     0  [0, 0, 0]
prtvol = 0, max 20 points are written



 === Kohn-Sham gaps and band edges from IBZ mesh ===
 Direct band gap semiconductor
 Fundamental gap:     7.802 (eV)
   VBM:    -3.901 (eV) at k: [ 0.0000E+00,  0.0000E+00,  0.0000E+00]
   CBM:     3.901 (eV) at k: [ 0.0000E+00,  0.0000E+00,  0.0000E+00]
 Direct gap:         7.802 (eV) at k: [ 0.0000E+00,  0.0000E+00,  0.0000E+00]


 ==== FFT mesh for Green's function ====
  FFT mesh divisions ........................    18   18   18
  Augmented FFT divisions ...................    18   18   18
  FFT algorithm .............................   312
  FFT cache size ............................    16
- FFT uc_batch_size: 4
- FFT sc_batch_size: 4
 ==== Info on the GWR object ====

--- !GWR_params
iteration_state: {dtset: 1, }
gwr_task: G0W0
nband: 480
ntau: 6
ngkpt: [8, 8, 8, ]
ngqpt: [8, 8, 8, ]
chi_algo: supercell
sigma_algo: 'BZ-convolutions'
nkibz: 29
nqibz: 29
inclvkb: 2
q0: [  1.00000000E-05,   2.00000000E-05,   3.00000000E-05, ]
gw_icutcoul: 6
green_mpw: 1588
tchi_mpw: 273
g_ngfft: [18, 18, 18, 18, 18, 18, ]
P gwr_np_kgts: [4, 64, 2, 1, ]
P np_kibz: [
    1, 1, 1, 1, 1, 1, 1, 1, 
    1, 2, 1, 1, 1, 1, 1, 1, 
    2, 1, 1, 1, 1, 1, 1, 2, 
    1, 1, 1, 1, 1, 
]
P np_qibz: [
    1, 1, 1, 1, 1, 1, 1, 1, 
    1, 2, 1, 1, 1, 1, 1, 1, 
    2, 1, 1, 1, 1, 1, 1, 2, 
    1, 1, 1, 1, 1, 
]
ft_max_err_t2w_cos:   2.30133872E-03
ft_max_err_w2t_cos:   1.13936199E-03
ft_max_err_t2w_sin:   5.12908075E-02
cosft_duality_error:   1.16756882E-03
Minimax imaginary tau/omega mesh: !Tabular | # tau, weight(tau), omega, weight(omega)
    1 1.76227E-02   4.69174E-02   1.06367E-01   2.23702E-01
    2 1.09948E-01   1.51524E-01   3.91802E-01   3.81083E-01
    3 3.69289E-01   4.04967E-01   9.75704E-01   8.72163E-01
    4 1.03528E+00   1.01107E+00   2.44075E+00   2.32137E+00
    5 2.64446E+00   2.39531E+00   6.66144E+00   7.11661E+00
    6 6.47067E+00   5.85453E+00   2.18694E+01   3.03885E+01
...


 Computing chi0 head and wings with inclvkb: 2
 Using KS orbitals and KS energies...


 ==== FFT mesh for chi0 head/wings computation ====
  FFT mesh divisions ........................    36   36   36
  Augmented FFT divisions ...................    37   37   36
  FFT algorithm .............................   312
  FFT cache size ............................    16

 Computing diagonal matrix elements of Sigma_x
 Using KS orbitals and KS energies...


 ==== FFT mesh for Sigma_x ====
  FFT mesh divisions ........................    36   36   36
  Augmented FFT divisions ...................    37   37   36
  FFT algorithm .............................   312
  FFT cache size ............................    16


 Building Green's functions from KS orbitals and KS energies...



 Building correlated screening Wc ...

--- !EMACRO_WITHOUT_LOCAL_FIELDS
iteration_state: {dtset: 1, }
'epsilon_{iw, q -> Gamma}(0,0)': !Tabular |
      1.06367476E-01    1.98928785E+00    1.40242173E-24
      3.91801686E-01    1.68984306E+00   -3.57760648E-25
      9.75704124E-01    1.31672072E+00   -2.63252212E-24
      2.44075385E+00    1.09651637E+00    1.74430675E-24
      6.66144202E+00    1.01897430E+00    8.03936592E-26
      2.18694085E+01    1.00206399E+00   -1.04230396E-26
...


--- !EMACRO_WITH_LOCAL_FIELDS
iteration_state: {dtset: 1, }
'epsilon_{iw, q -> Gamma}(0,0)': !Tabular |
      1.06367476E-01    5.32047033E-01    0.00000000E+00
      3.91801686E-01    6.18847966E-01    0.00000000E+00
      9.75704124E-01    7.77610242E-01    0.00000000E+00
      2.44075385E+00    9.17577446E-01    0.00000000E+00
      6.66144202E+00    9.81913030E-01    0.00000000E+00
      2.18694085E+01    9.97950673E-01    0.00000000E+00
...



 Building Sigma_c with convolutions in k-space:
================================================================================
 QP results (energies in eV)
 Notations:
     E0: Kohn-Sham energy
     <VxcDFT>: Matrix elements of Vxc[n_val] without non-linear core correction (if any)
     SigX: Matrix elements of Sigma_x
     SigC(E0): Matrix elements of Sigma_c at E0
     Z: Renormalization factor
     E-E0: Difference between the QP and the KS energy.
     E-Eprev: Difference between QP energy at iteration i and i-1
     E: Quasi-particle energy
     Occ(E): Occupancy of QP state
 
 

--- !GWR_SelfEnergy_ee
iteration_state: {dtset: 1, }
kpoint     : [   0.000,    0.000,    0.000, ]
spin       : 1
gwr_scf_iteration: 1
gwr_task   : G0W0
QP_VBM_band: 4
QP_CBM_band: 6
KS_gap     :    7.802
QP_gap     :   12.022
Delta_QP_KS:    4.220
data: !Tabular |
     Band       E0 <VxcDFT>     SigX SigC(E0)        Z     E-E0  E-Eprev        E   Occ(E)
        1  -45.181  -25.624  -39.726    3.346    0.918   -9.825   -9.825  -55.007    2.000
        2  -23.405  -22.834  -37.674    8.305    0.793   -5.090   -5.090  -28.495    2.000
        3   -3.901  -22.743  -30.396    3.912    0.790   -2.956   -2.956   -6.857    2.000
        4   -3.901  -22.743  -30.396    3.912    0.790   -2.956   -2.956   -6.857    2.000
        5   -3.901  -22.743  -30.396    3.912    0.790   -2.956   -2.956   -6.857    2.000
        6    3.901  -10.304   -5.806   -3.044    0.870    1.264    1.264    5.165    0.000
        7   17.990   -9.323   -2.776   -4.000    0.872    2.216    2.216   20.206    0.000
        8   17.990   -9.323   -2.776   -4.000    0.872    2.216    2.216   20.206    0.000
        9   17.990   -9.323   -2.776   -4.000    0.872    2.216    2.216   20.206    0.000
...


--- !GWR_SelfEnergy_ee
iteration_state: {dtset: 1, }
kpoint     : [   0.500,    0.500,    0.000, ]
spin       : 1
gwr_scf_iteration: 1
gwr_task   : G0W0
QP_VBM_band: 5
QP_CBM_band: 6
KS_gap     :   14.154
QP_gap     :   19.253
Delta_QP_KS:    5.099
data: !Tabular |
     Band       E0 <VxcDFT>     SigX SigC(E0)        Z     E-E0  E-Eprev        E   Occ(E)
        1  -45.145  -25.687  -39.778    3.326    0.918   -9.840   -9.840  -54.985    2.000
        2  -22.921  -23.512  -38.335    8.370    0.790   -5.010   -5.010  -27.931    2.000
        3   -6.260  -18.565  -26.561    3.853    0.792   -3.278   -3.278   -9.539    2.000
        4   -4.678  -21.407  -29.247    3.927    0.791   -3.094   -3.094   -7.773    2.000
        5   -4.678  -21.407  -29.247    3.927    0.791   -3.094   -3.094   -7.773    2.000
        6    9.476  -13.666   -7.924   -3.412    0.863    2.004    2.004   11.480    0.000
        7   11.701   -9.666   -4.223   -3.544    0.882    1.672    1.672   13.373    0.000
        8   11.843   -6.888   -2.223   -3.359    0.889    1.158    1.158   13.002    0.000
...


================================================================================
== DATASET  2 ==================================================================
-   mpi_nproc: 512, omp_nthreads: -1 (-1 if OMP is not activated)


--- !DatasetInfo
iteration_state: {dtset: 2, }
dimensions: {natom: 2, nkpt: 29, mband: 480, nsppol: 1, nspinor: 1, nspden: 1, mpw: 1588, }
cutoff_energies: {ecut:  40.0, pawecutdg:  -1.0, }
electrons: {nelect:   1.00000000E+01, charge:   0.00000000E+00, occopt:   1.00000000E+00, tsmear:   1.00000000E-02, }
meta: {optdriver: 6, }
...

 mkfilename: getwfk from: ../outdata_gs_DS2_WFK

 mkfilename: getden from: ../outdata_gs_DS1_DEN

 Exchange-correlation functional for the present dataset will be:
  GGA: Perdew-Burke-Ernzerhof functional - ixc=11
 Citation for XC functional:
  J.P.Perdew, K.Burke, M.Ernzerhof, PRL 77, 3865 (1996)

.Using single precision arithmetic; gwpc =  4

- Reading GS density from: ../outdata_gs_DS1_DEN



--------------------------------------------------------------------------------

 Total charge density [el/Bohr^3]
)     Maximum=    2.7912E+00  at reduced coord.    0.0000    0.0000    0.0000
)     Minimum=    4.0719E-03  at reduced coord.    0.2500    0.2500    0.2500
   Integrated=    1.0000E+01
- Reading GS states from WFK file: ../outdata_gs_DS2_WFK
  Mapping kBZ --> kIBZ
 Legend: bz = TS(ibz) + g0 where isym is the index of the symrec operation S and itim is 1 if TR is used.
        BZ                                       IBZ                                       ibz  isym  itim  g0
     1  [ 0.0000E+00,  0.0000E+00,  0.0000E+00]  [ 0.0000E+00,  0.0000E+00,  0.0000E+00]     1     1     0  [0, 0, 0]
     2  [ 1.2500E-01,  0.0000E+00,  0.0000E+00]  [ 1.2500E-01,  0.0000E+00,  0.0000E+00]     2     1     0  [0, 0, 0]
     3  [-1.2500E-01,  0.0000E+00,  0.0000E+00]  [ 1.2500E-01,  0.0000E+00,  0.0000E+00]     2     2     0  [0, 0, 0]
     4  [ 0.0000E+00,  0.0000E+00, -1.2500E-01]  [ 1.2500E-01,  0.0000E+00,  0.0000E+00]     2     4     0  [0, 0, 0]
     5  [ 0.0000E+00,  1.2500E-01,  0.0000E+00]  [ 1.2500E-01,  0.0000E+00,  0.0000E+00]     2     7     0  [0, 0, 0]
     6  [ 1.2500E-01,  1.2500E-01,  1.2500E-01]  [ 1.2500E-01,  0.0000E+00,  0.0000E+00]     2     6     0  [0, 0, 0]
     7  [-1.2500E-01, -1.2500E-01, -1.2500E-01]  [ 1.2500E-01,  0.0000E+00,  0.0000E+00]     2     5     0  [0, 0, 0]
     8  [ 0.0000E+00, -1.2500E-01,  0.0000E+00]  [ 1.2500E-01,  0.0000E+00,  0.0000E+00]     2     8     0  [0, 0, 0]
     9  [ 0.0000E+00,  0.0000E+00,  1.2500E-01]  [ 1.2500E-01,  0.0000E+00,  0.0000E+00]     2     3     0  [0, 0, 0]
    10  [ 2.5000E-01,  0.0000E+00,  0.0000E+00]  [ 2.5000E-01,  0.0000E+00,  0.0000E+00]     3     1     0  [0, 0, 0]
    11  [ 2.5000E-01,  2.5000E-01,  2.5000E-01]  [ 2.5000E-01,  0.0000E+00,  0.0000E+00]     3     6     0  [0, 0, 0]
    12  [ 0.0000E+00,  2.5000E-01,  0.0000E+00]  [ 2.5000E-01,  0.0000E+00,  0.0000E+00]     3     7     0  [0, 0, 0]
    13  [ 0.0000E+00, -2.5000E-01,  0.0000E+00]  [ 2.5000E-01,  0.0000E+00,  0.0000E+00]     3     8     0  [0, 0, 0]
    14  [-2.5000E-01,  0.0000E+00,  0.0000E+00]  [ 2.5000E-01,  0.0000E+00,  0.0000E+00]     3     2     0  [0, 0, 0]
    15  [ 0.0000E+00,  0.0000E+00,  2.5000E-01]  [ 2.5000E-01,  0.0000E+00,  0.0000E+00]     3     3     0  [0, 0, 0]
    16  [ 0.0000E+00,  0.0000E+00, -2.5000E-01]  [ 2.5000E-01,  0.0000E+00,  0.0000E+00]     3     4     0  [0, 0, 0]
    17  [-2.5000E-01, -2.5000E-01, -2.5000E-01]  [ 2.5000E-01,  0.0000E+00,  0.0000E+00]     3     5     0  [0, 0, 0]
    18  [ 3.7500E-01,  0.0000E+00,  0.0000E+00]  [ 3.7500E-01,  0.0000E+00,  0.0000E+00]     4     1     0  [0, 0, 0]
    19  [-3.7500E-01, -3.7500E-01, -3.7500E-01]  [ 3.7500E-01,  0.0000E+00,  0.0000E+00]     4     5     0  [0, 0, 0]
    20  [ 0.0000E+00,  0.0000E+00, -3.7500E-01]  [ 3.7500E-01,  0.0000E+00,  0.0000E+00]     4     4     0  [0, 0, 0]
prtvol = 0, max 20 points are written


  Mapping qBZ --> qIBZ
 Legend: bz = TS(ibz) + g0 where isym is the index of the symrec operation S and itim is 1 if TR is used.
        BZ                                       IBZ                                       ibz  isym  itim  g0
     1  [ 0.0000E+00,  0.0000E+00,  0.0000E+00]  [ 0.0000E+00,  0.0000E+00,  0.0000E+00]     1     1     0  [0, 0, 0]
     2  [ 1.2500E-01,  0.0000E+00,  0.0000E+00]  [ 1.2500E-01,  0.0000E+00,  0.0000E+00]     2     1     0  [0, 0, 0]
     3  [-1.2500E-01,  0.0000E+00,  0.0000E+00]  [ 1.2500E-01,  0.0000E+00,  0.0000E+00]     2     2     0  [0, 0, 0]
     4  [ 0.0000E+00,  0.0000E+00, -1.2500E-01]  [ 1.2500E-01,  0.0000E+00,  0.0000E+00]     2     4     0  [0, 0, 0]
     5  [ 0.0000E+00,  1.2500E-01,  0.0000E+00]  [ 1.2500E-01,  0.0000E+00,  0.0000E+00]     2     7     0  [0, 0, 0]
     6  [ 1.2500E-01,  1.2500E-01,  1.2500E-01]  [ 1.2500E-01,  0.0000E+00,  0.0000E+00]     2     6     0  [0, 0, 0]
     7  [-1.2500E-01, -1.2500E-01, -1.2500E-01]  [ 1.2500E-01,  0.0000E+00,  0.0000E+00]     2     5     0  [0, 0, 0]
     8  [ 0.0000E+00, -1.2500E-01,  0.0000E+00]  [ 1.2500E-01,  0.0000E+00,  0.0000E+00]     2     8     0  [0, 0, 0]
     9  [ 0.0000E+00,  0.0000E+00,  1.2500E-01]  [ 1.2500E-01,  0.0000E+00,  0.0000E+00]     2     3     0  [0, 0, 0]
    10  [ 2.5000E-01,  0.0000E+00,  0.0000E+00]  [ 2.5000E-01,  0.0000E+00,  0.0000E+00]     3     1     0  [0, 0, 0]
    11  [ 2.5000E-01,  2.5000E-01,  2.5000E-01]  [ 2.5000E-01,  0.0000E+00,  0.0000E+00]     3     6     0  [0, 0, 0]
    12  [ 0.0000E+00,  2.5000E-01,  0.0000E+00]  [ 2.5000E-01,  0.0000E+00,  0.0000E+00]     3     7     0  [0, 0, 0]
    13  [ 0.0000E+00, -2.5000E-01,  0.0000E+00]  [ 2.5000E-01,  0.0000E+00,  0.0000E+00]     3     8     0  [0, 0, 0]
    14  [-2.5000E-01,  0.0000E+00,  0.0000E+00]  [ 2.5000E-01,  0.0000E+00,  0.0000E+00]     3     2     0  [0, 0, 0]
    15  [ 0.0000E+00,  0.0000E+00,  2.5000E-01]  [ 2.5000E-01,  0.0000E+00,  0.0000E+00]     3     3     0  [0, 0, 0]
    16  [ 0.0000E+00,  0.0000E+00, -2.5000E-01]  [ 2.5000E-01,  0.0000E+00,  0.0000E+00]     3     4     0  [0, 0, 0]
    17  [-2.5000E-01, -2.5000E-01, -2.5000E-01]  [ 2.5000E-01,  0.0000E+00,  0.0000E+00]     3     5     0  [0, 0, 0]
    18  [ 3.7500E-01,  0.0000E+00,  0.0000E+00]  [ 3.7500E-01,  0.0000E+00,  0.0000E+00]     4     1     0  [0, 0, 0]
    19  [-3.7500E-01, -3.7500E-01, -3.7500E-01]  [ 3.7500E-01,  0.0000E+00,  0.0000E+00]     4     5     0  [0, 0, 0]
    20  [ 0.0000E+00,  0.0000E+00, -3.7500E-01]  [ 3.7500E-01,  0.0000E+00,  0.0000E+00]     4     4     0  [0, 0, 0]
prtvol = 0, max 20 points are written



 === Kohn-Sham gaps and band edges from IBZ mesh ===
 Direct band gap semiconductor
 Fundamental gap:     7.802 (eV)
   VBM:    -3.901 (eV) at k: [ 0.0000E+00,  0.0000E+00,  0.0000E+00]
   CBM:     3.901 (eV) at k: [ 0.0000E+00,  0.0000E+00,  0.0000E+00]
 Direct gap:         7.802 (eV) at k: [ 0.0000E+00,  0.0000E+00,  0.0000E+00]


 ==== FFT mesh for Green's function ====
  FFT mesh divisions ........................    18   18   18
  Augmented FFT divisions ...................    18   18   18
  FFT algorithm .............................   312
  FFT cache size ............................    16
- FFT uc_batch_size: 4
- FFT sc_batch_size: 4
 ==== Info on the GWR object ====

--- !GWR_params
iteration_state: {dtset: 2, }
gwr_task: G0W0
nband: 480
ntau: 8
ngkpt: [8, 8, 8, ]
ngqpt: [8, 8, 8, ]
chi_algo: supercell
sigma_algo: 'BZ-convolutions'
nkibz: 29
nqibz: 29
inclvkb: 2
q0: [  1.00000000E-05,   2.00000000E-05,   3.00000000E-05, ]
gw_icutcoul: 6
green_mpw: 1588
tchi_mpw: 273
g_ngfft: [18, 18, 18, 18, 18, 18, ]
P gwr_np_kgts: [4, 64, 2, 1, ]
P np_kibz: [
    1, 1, 1, 1, 1, 1, 1, 1, 
    1, 2, 1, 1, 1, 1, 1, 1, 
    2, 1, 1, 1, 1, 1, 1, 2, 
    1, 1, 1, 1, 1, 
]
P np_qibz: [
    1, 1, 1, 1, 1, 1, 1, 1, 
    1, 2, 1, 1, 1, 1, 1, 1, 
    2, 1, 1, 1, 1, 1, 1, 2, 
    1, 1, 1, 1, 1, 
]
ft_max_err_t2w_cos:   5.84670792E-04
ft_max_err_w2t_cos:   1.28525749E-04
ft_max_err_t2w_sin:   1.09419313E-02
cosft_duality_error:   2.21879850E-03
Minimax imaginary tau/omega mesh: !Tabular | # tau, weight(tau), omega, weight(omega)
    1 1.27834E-02   3.34021E-02   8.52998E-02   1.76154E-01
    2 7.30690E-02   9.15328E-02   2.91221E-01   2.50195E-01
    3 2.10842E-01   1.95575E-01   6.24659E-01   4.43464E-01
    4 4.98622E-01   4.04092E-01   1.25682E+00   8.78100E-01
    5 1.08628E+00   8.16828E-01   2.55738E+00   1.85644E+00
    6 2.25840E+00   1.61345E+00   5.40232E+00   4.17784E+00
    7 4.56045E+00   3.17054E+00   1.21622E+01   1.04884E+01
    8 9.22291E+00   6.74514E+00   3.26506E+01   3.96056E+01
...


 Computing chi0 head and wings with inclvkb: 2
 Using KS orbitals and KS energies...


 ==== FFT mesh for chi0 head/wings computation ====
  FFT mesh divisions ........................    36   36   36
  Augmented FFT divisions ...................    37   37   36
  FFT algorithm .............................   312
  FFT cache size ............................    16

 Computing diagonal matrix elements of Sigma_x
 Using KS orbitals and KS energies...


 ==== FFT mesh for Sigma_x ====
  FFT mesh divisions ........................    36   36   36
  Augmented FFT divisions ...................    37   37   36
  FFT algorithm .............................   312
  FFT cache size ............................    16


 Building Green's functions from KS orbitals and KS energies...



 Building correlated screening Wc ...

--- !EMACRO_WITHOUT_LOCAL_FIELDS
iteration_state: {dtset: 2, }
'epsilon_{iw, q -> Gamma}(0,0)': !Tabular |
      8.52998384E-02    2.00400138E+00   -4.05462081E-25
      2.91221371E-01    1.79825342E+00    1.71963631E-24
      6.24658545E-01    1.49268866E+00    2.19426542E-25
      1.25681945E+00    1.23578179E+00   -7.54874953E-25
      2.55737700E+00    1.09011245E+00   -1.64085435E-24
      5.40232349E+00    1.02728498E+00    2.16631534E-25
      1.21621754E+01    1.00633943E+00    4.91455067E-27
      3.26505940E+01    1.00094151E+00   -1.17809466E-26
...


--- !EMACRO_WITH_LOCAL_FIELDS
iteration_state: {dtset: 2, }
'epsilon_{iw, q -> Gamma}(0,0)': !Tabular |
      8.52998384E-02    5.28424561E-01    0.00000000E+00
      2.91221371E-01    5.84255874E-01    0.00000000E+00
      6.24658545E-01    6.93637729E-01    0.00000000E+00
      1.25681945E+00    8.23568106E-01    0.00000000E+00
      2.55737700E+00    9.22478795E-01    0.00000000E+00
      5.40232349E+00    9.74389613E-01    0.00000000E+00
      1.21621754E+01    9.93783176E-01    0.00000000E+00
      3.26505940E+01    9.99061763E-01    0.00000000E+00
...



 Building Sigma_c with convolutions in k-space:
================================================================================
 QP results (energies in eV)
 Notations:
     E0: Kohn-Sham energy
     <VxcDFT>: Matrix elements of Vxc[n_val] without non-linear core correction (if any)
     SigX: Matrix elements of Sigma_x
     SigC(E0): Matrix elements of Sigma_c at E0
     Z: Renormalization factor
     E-E0: Difference between the QP and the KS energy.
     E-Eprev: Difference between QP energy at iteration i and i-1
     E: Quasi-particle energy
     Occ(E): Occupancy of QP state
 
 

--- !GWR_SelfEnergy_ee
iteration_state: {dtset: 2, }
kpoint     : [   0.000,    0.000,    0.000, ]
spin       : 1
gwr_scf_iteration: 1
gwr_task   : G0W0
QP_VBM_band: 4
QP_CBM_band: 6
KS_gap     :    7.802
QP_gap     :   12.152
Delta_QP_KS:    4.350
data: !Tabular |
     Band       E0 <VxcDFT>     SigX SigC(E0)        Z     E-E0  E-Eprev        E   Occ(E)
        1  -45.181  -25.624  -39.726    3.090    0.922  -10.134  -10.134  -55.315    2.000
        2  -23.405  -22.834  -37.674    8.779    0.750   -4.458   -4.458  -27.864    2.000
        3   -3.901  -22.743  -30.396    3.841    0.787   -3.001   -3.001   -6.902    2.000
        4   -3.901  -22.743  -30.396    3.841    0.787   -3.001   -3.001   -6.902    2.000
        5   -3.901  -22.743  -30.396    3.841    0.787   -3.001   -3.001   -6.902    2.000
        6    3.901  -10.304   -5.806   -2.975    0.886    1.350    1.350    5.251    0.000
        7   17.990   -9.323   -2.776   -3.958    0.880    2.274    2.274   20.265    0.000
        8   17.990   -9.323   -2.776   -3.958    0.880    2.274    2.274   20.265    0.000
        9   17.990   -9.323   -2.776   -3.958    0.880    2.274    2.274   20.265    0.000
...


--- !GWR_SelfEnergy_ee
iteration_state: {dtset: 2, }
kpoint     : [   0.500,    0.500,    0.000, ]
spin       : 1
gwr_scf_iteration: 1
gwr_task   : G0W0
QP_VBM_band: 5
QP_CBM_band: 6
KS_gap     :   14.154
QP_gap     :   19.321
Delta_QP_KS:    5.167
data: !Tabular |
     Band       E0 <VxcDFT>     SigX SigC(E0)        Z     E-E0  E-Eprev        E   Occ(E)
        1  -45.145  -25.687  -39.778    3.073    0.922  -10.144  -10.144  -55.289    2.000
        2  -22.921  -23.512  -38.335    8.807    0.750   -4.429   -4.429  -27.350    2.000
        3   -6.260  -18.565  -26.561    3.778    0.783   -3.303   -3.303   -9.563    2.000
        4   -4.678  -21.407  -29.247    3.855    0.785   -3.129   -3.129   -7.807    2.000
        5   -4.678  -21.407  -29.247    3.855    0.785   -3.129   -3.129   -7.807    2.000
        6    9.476  -13.666   -7.924   -3.357    0.855    2.038    2.038   11.514    0.000
        7   11.701   -9.666   -4.223   -3.514    0.875    1.688    1.688   13.389    0.000
        8   11.843   -6.888   -2.223   -3.346    0.882    1.162    1.162   13.006    0.000
...


================================================================================
== DATASET  3 ==================================================================
-   mpi_nproc: 512, omp_nthreads: -1 (-1 if OMP is not activated)


--- !DatasetInfo
iteration_state: {dtset: 3, }
dimensions: {natom: 2, nkpt: 29, mband: 480, nsppol: 1, nspinor: 1, nspden: 1, mpw: 1588, }
cutoff_energies: {ecut:  40.0, pawecutdg:  -1.0, }
electrons: {nelect:   1.00000000E+01, charge:   0.00000000E+00, occopt:   1.00000000E+00, tsmear:   1.00000000E-02, }
meta: {optdriver: 6, }
...

 mkfilename: getwfk from: ../outdata_gs_DS2_WFK

 mkfilename: getden from: ../outdata_gs_DS1_DEN

 Exchange-correlation functional for the present dataset will be:
  GGA: Perdew-Burke-Ernzerhof functional - ixc=11
 Citation for XC functional:
  J.P.Perdew, K.Burke, M.Ernzerhof, PRL 77, 3865 (1996)

.Using single precision arithmetic; gwpc =  4

- Reading GS density from: ../outdata_gs_DS1_DEN



--------------------------------------------------------------------------------

 Total charge density [el/Bohr^3]
)     Maximum=    2.7912E+00  at reduced coord.    0.0000    0.0000    0.0000
)     Minimum=    4.0719E-03  at reduced coord.    0.2500    0.2500    0.2500
   Integrated=    1.0000E+01
- Reading GS states from WFK file: ../outdata_gs_DS2_WFK
  Mapping kBZ --> kIBZ
 Legend: bz = TS(ibz) + g0 where isym is the index of the symrec operation S and itim is 1 if TR is used.
        BZ                                       IBZ                                       ibz  isym  itim  g0
     1  [ 0.0000E+00,  0.0000E+00,  0.0000E+00]  [ 0.0000E+00,  0.0000E+00,  0.0000E+00]     1     1     0  [0, 0, 0]
     2  [ 1.2500E-01,  0.0000E+00,  0.0000E+00]  [ 1.2500E-01,  0.0000E+00,  0.0000E+00]     2     1     0  [0, 0, 0]
     3  [-1.2500E-01,  0.0000E+00,  0.0000E+00]  [ 1.2500E-01,  0.0000E+00,  0.0000E+00]     2     2     0  [0, 0, 0]
     4  [ 0.0000E+00,  0.0000E+00, -1.2500E-01]  [ 1.2500E-01,  0.0000E+00,  0.0000E+00]     2     4     0  [0, 0, 0]
     5  [ 0.0000E+00,  1.2500E-01,  0.0000E+00]  [ 1.2500E-01,  0.0000E+00,  0.0000E+00]     2     7     0  [0, 0, 0]
     6  [ 1.2500E-01,  1.2500E-01,  1.2500E-01]  [ 1.2500E-01,  0.0000E+00,  0.0000E+00]     2     6     0  [0, 0, 0]
     7  [-1.2500E-01, -1.2500E-01, -1.2500E-01]  [ 1.2500E-01,  0.0000E+00,  0.0000E+00]     2     5     0  [0, 0, 0]
     8  [ 0.0000E+00, -1.2500E-01,  0.0000E+00]  [ 1.2500E-01,  0.0000E+00,  0.0000E+00]     2     8     0  [0, 0, 0]
     9  [ 0.0000E+00,  0.0000E+00,  1.2500E-01]  [ 1.2500E-01,  0.0000E+00,  0.0000E+00]     2     3     0  [0, 0, 0]
    10  [ 2.5000E-01,  0.0000E+00,  0.0000E+00]  [ 2.5000E-01,  0.0000E+00,  0.0000E+00]     3     1     0  [0, 0, 0]
    11  [ 2.5000E-01,  2.5000E-01,  2.5000E-01]  [ 2.5000E-01,  0.0000E+00,  0.0000E+00]     3     6     0  [0, 0, 0]
    12  [ 0.0000E+00,  2.5000E-01,  0.0000E+00]  [ 2.5000E-01,  0.0000E+00,  0.0000E+00]     3     7     0  [0, 0, 0]
    13  [ 0.0000E+00, -2.5000E-01,  0.0000E+00]  [ 2.5000E-01,  0.0000E+00,  0.0000E+00]     3     8     0  [0, 0, 0]
    14  [-2.5000E-01,  0.0000E+00,  0.0000E+00]  [ 2.5000E-01,  0.0000E+00,  0.0000E+00]     3     2     0  [0, 0, 0]
    15  [ 0.0000E+00,  0.0000E+00,  2.5000E-01]  [ 2.5000E-01,  0.0000E+00,  0.0000E+00]     3     3     0  [0, 0, 0]
    16  [ 0.0000E+00,  0.0000E+00, -2.5000E-01]  [ 2.5000E-01,  0.0000E+00,  0.0000E+00]     3     4     0  [0, 0, 0]
    17  [-2.5000E-01, -2.5000E-01, -2.5000E-01]  [ 2.5000E-01,  0.0000E+00,  0.0000E+00]     3     5     0  [0, 0, 0]
    18  [ 3.7500E-01,  0.0000E+00,  0.0000E+00]  [ 3.7500E-01,  0.0000E+00,  0.0000E+00]     4     1     0  [0, 0, 0]
    19  [-3.7500E-01, -3.7500E-01, -3.7500E-01]  [ 3.7500E-01,  0.0000E+00,  0.0000E+00]     4     5     0  [0, 0, 0]
    20  [ 0.0000E+00,  0.0000E+00, -3.7500E-01]  [ 3.7500E-01,  0.0000E+00,  0.0000E+00]     4     4     0  [0, 0, 0]
prtvol = 0, max 20 points are written


  Mapping qBZ --> qIBZ
 Legend: bz = TS(ibz) + g0 where isym is the index of the symrec operation S and itim is 1 if TR is used.
        BZ                                       IBZ                                       ibz  isym  itim  g0
     1  [ 0.0000E+00,  0.0000E+00,  0.0000E+00]  [ 0.0000E+00,  0.0000E+00,  0.0000E+00]     1     1     0  [0, 0, 0]
     2  [ 1.2500E-01,  0.0000E+00,  0.0000E+00]  [ 1.2500E-01,  0.0000E+00,  0.0000E+00]     2     1     0  [0, 0, 0]
     3  [-1.2500E-01,  0.0000E+00,  0.0000E+00]  [ 1.2500E-01,  0.0000E+00,  0.0000E+00]     2     2     0  [0, 0, 0]
     4  [ 0.0000E+00,  0.0000E+00, -1.2500E-01]  [ 1.2500E-01,  0.0000E+00,  0.0000E+00]     2     4     0  [0, 0, 0]
     5  [ 0.0000E+00,  1.2500E-01,  0.0000E+00]  [ 1.2500E-01,  0.0000E+00,  0.0000E+00]     2     7     0  [0, 0, 0]
     6  [ 1.2500E-01,  1.2500E-01,  1.2500E-01]  [ 1.2500E-01,  0.0000E+00,  0.0000E+00]     2     6     0  [0, 0, 0]
     7  [-1.2500E-01, -1.2500E-01, -1.2500E-01]  [ 1.2500E-01,  0.0000E+00,  0.0000E+00]     2     5     0  [0, 0, 0]
     8  [ 0.0000E+00, -1.2500E-01,  0.0000E+00]  [ 1.2500E-01,  0.0000E+00,  0.0000E+00]     2     8     0  [0, 0, 0]
     9  [ 0.0000E+00,  0.0000E+00,  1.2500E-01]  [ 1.2500E-01,  0.0000E+00,  0.0000E+00]     2     3     0  [0, 0, 0]
    10  [ 2.5000E-01,  0.0000E+00,  0.0000E+00]  [ 2.5000E-01,  0.0000E+00,  0.0000E+00]     3     1     0  [0, 0, 0]
    11  [ 2.5000E-01,  2.5000E-01,  2.5000E-01]  [ 2.5000E-01,  0.0000E+00,  0.0000E+00]     3     6     0  [0, 0, 0]
    12  [ 0.0000E+00,  2.5000E-01,  0.0000E+00]  [ 2.5000E-01,  0.0000E+00,  0.0000E+00]     3     7     0  [0, 0, 0]
    13  [ 0.0000E+00, -2.5000E-01,  0.0000E+00]  [ 2.5000E-01,  0.0000E+00,  0.0000E+00]     3     8     0  [0, 0, 0]
    14  [-2.5000E-01,  0.0000E+00,  0.0000E+00]  [ 2.5000E-01,  0.0000E+00,  0.0000E+00]     3     2     0  [0, 0, 0]
    15  [ 0.0000E+00,  0.0000E+00,  2.5000E-01]  [ 2.5000E-01,  0.0000E+00,  0.0000E+00]     3     3     0  [0, 0, 0]
    16  [ 0.0000E+00,  0.0000E+00, -2.5000E-01]  [ 2.5000E-01,  0.0000E+00,  0.0000E+00]     3     4     0  [0, 0, 0]
    17  [-2.5000E-01, -2.5000E-01, -2.5000E-01]  [ 2.5000E-01,  0.0000E+00,  0.0000E+00]     3     5     0  [0, 0, 0]
    18  [ 3.7500E-01,  0.0000E+00,  0.0000E+00]  [ 3.7500E-01,  0.0000E+00,  0.0000E+00]     4     1     0  [0, 0, 0]
    19  [-3.7500E-01, -3.7500E-01, -3.7500E-01]  [ 3.7500E-01,  0.0000E+00,  0.0000E+00]     4     5     0  [0, 0, 0]
    20  [ 0.0000E+00,  0.0000E+00, -3.7500E-01]  [ 3.7500E-01,  0.0000E+00,  0.0000E+00]     4     4     0  [0, 0, 0]
prtvol = 0, max 20 points are written



 === Kohn-Sham gaps and band edges from IBZ mesh ===
 Direct band gap semiconductor
 Fundamental gap:     7.802 (eV)
   VBM:    -3.901 (eV) at k: [ 0.0000E+00,  0.0000E+00,  0.0000E+00]
   CBM:     3.901 (eV) at k: [ 0.0000E+00,  0.0000E+00,  0.0000E+00]
 Direct gap:         7.802 (eV) at k: [ 0.0000E+00,  0.0000E+00,  0.0000E+00]


 ==== FFT mesh for Green's function ====
  FFT mesh divisions ........................    18   18   18
  Augmented FFT divisions ...................    18   18   18
  FFT algorithm .............................   312
  FFT cache size ............................    16
- FFT uc_batch_size: 4
- FFT sc_batch_size: 4
 ==== Info on the GWR object ====

--- !GWR_params
iteration_state: {dtset: 3, }
gwr_task: G0W0
nband: 480
ntau: 10
ngkpt: [8, 8, 8, ]
ngqpt: [8, 8, 8, ]
chi_algo: supercell
sigma_algo: 'BZ-convolutions'
nkibz: 29
nqibz: 29
inclvkb: 2
q0: [  1.00000000E-05,   2.00000000E-05,   3.00000000E-05, ]
gw_icutcoul: 6
green_mpw: 1588
tchi_mpw: 273
g_ngfft: [18, 18, 18, 18, 18, 18, ]
P gwr_np_kgts: [4, 64, 2, 1, ]
P np_kibz: [
    1, 1, 1, 1, 1, 1, 1, 1, 
    1, 2, 1, 1, 1, 1, 1, 1, 
    2, 1, 1, 1, 1, 1, 1, 2, 
    1, 1, 1, 1, 1, 
]
P np_qibz: [
    1, 1, 1, 1, 1, 1, 1, 1, 
    1, 2, 1, 1, 1, 1, 1, 1, 
    2, 1, 1, 1, 1, 1, 1, 2, 
    1, 1, 1, 1, 1, 
]
ft_max_err_t2w_cos:   6.36001296E-05
ft_max_err_w2t_cos:   4.92581431E-05
ft_max_err_t2w_sin:   2.25261004E-03
cosft_duality_error:   1.64901903E-03
Minimax imaginary tau/omega mesh: !Tabular | # tau, weight(tau), omega, weight(omega)
    1 1.00616E-02   2.61004E-02   7.06700E-02   1.44455E-01
    2 5.56042E-02   6.68732E-02   2.31408E-01   1.84444E-01
    3 1.49950E-01   1.26418E-01   4.57735E-01   2.79628E-01
    4 3.21921E-01   2.26862E-01   8.20780E-01   4.66346E-01
    5 6.29107E-01   4.04238E-01   1.44488E+00   8.18802E-01
    6 1.17440E+00   7.14761E-01   2.56222E+00   1.48793E+00
    7 2.13293E+00   1.25035E+00   4.62960E+00   2.79669E+00
    8 3.80289E+00   2.17447E+00   8.61870E+00   5.54110E+00
    9 6.72269E+00   3.84021E+00   1.70340E+01   1.25457E+01
    10 1.20996E+01   7.50747E+00   4.10230E+01   4.63458E+01
...


 Computing chi0 head and wings with inclvkb: 2
 Using KS orbitals and KS energies...


 ==== FFT mesh for chi0 head/wings computation ====
  FFT mesh divisions ........................    36   36   36
  Augmented FFT divisions ...................    37   37   36
  FFT algorithm .............................   312
  FFT cache size ............................    16

 Computing diagonal matrix elements of Sigma_x
 Using KS orbitals and KS energies...


 ==== FFT mesh for Sigma_x ====
  FFT mesh divisions ........................    36   36   36
  Augmented FFT divisions ...................    37   37   36
  FFT algorithm .............................   312
  FFT cache size ............................    16


 Building Green's functions from KS orbitals and KS energies...



 Building correlated screening Wc ...

--- !EMACRO_WITHOUT_LOCAL_FIELDS
iteration_state: {dtset: 3, }
'epsilon_{iw, q -> Gamma}(0,0)': !Tabular |
      7.06700093E-02    2.01261139E+00   -8.39545021E-25
      2.31407737E-01    1.86570060E+00    3.06481612E-24
      4.57735462E-01    1.62588573E+00    2.10244014E-24
      8.20780253E-01    1.38074005E+00    1.47397388E-24
      1.44488190E+00    1.19810343E+00   -3.04990956E-25
      2.56222121E+00    1.08986056E+00   -1.57653191E-24
      4.62959785E+00    1.03539777E+00   -1.86165972E-25
      8.61869638E+00    1.01197171E+00   -3.64282315E-26
      1.70340058E+01    1.00334477E+00   -3.11573218E-26
      4.10229739E+01    1.00059962E+00   -1.57769300E-26
...


--- !EMACRO_WITH_LOCAL_FIELDS
iteration_state: {dtset: 3, }
'epsilon_{iw, q -> Gamma}(0,0)': !Tabular |
      7.06700093E-02    5.26329339E-01    0.00000000E+00
      2.31407737E-01    5.64652801E-01    0.00000000E+00
      4.57735462E-01    6.41270399E-01    0.00000000E+00
      8.20780253E-01    7.44788468E-01    0.00000000E+00
      1.44488190E+00    8.46924663E-01    0.00000000E+00
      2.56222121E+00    9.22672868E-01    0.00000000E+00
      4.62959785E+00    9.67225254E-01    0.00000000E+00
      8.61869638E+00    9.88418937E-01    0.00000000E+00
      1.70340058E+01    9.96692359E-01    0.00000000E+00
      4.10229739E+01    9.99401689E-01    0.00000000E+00
...



 Building Sigma_c with convolutions in k-space:
================================================================================
 QP results (energies in eV)
 Notations:
     E0: Kohn-Sham energy
     <VxcDFT>: Matrix elements of Vxc[n_val] without non-linear core correction (if any)
     SigX: Matrix elements of Sigma_x
     SigC(E0): Matrix elements of Sigma_c at E0
     Z: Renormalization factor
     E-E0: Difference between the QP and the KS energy.
     E-Eprev: Difference between QP energy at iteration i and i-1
     E: Quasi-particle energy
     Occ(E): Occupancy of QP state
 
 

--- !GWR_SelfEnergy_ee
iteration_state: {dtset: 3, }
kpoint     : [   0.000,    0.000,    0.000, ]
spin       : 1
gwr_scf_iteration: 1
gwr_task   : G0W0
QP_VBM_band: 4
QP_CBM_band: 6
KS_gap     :    7.802
QP_gap     :   12.164
Delta_QP_KS:    4.363
data: !Tabular |
     Band       E0 <VxcDFT>     SigX SigC(E0)        Z     E-E0  E-Eprev        E   Occ(E)
        1  -45.181  -25.624  -39.726    3.253    0.907   -9.826   -9.826  -55.007    2.000
        2  -23.405  -22.834  -37.674    9.112    0.720   -4.022   -4.022  -27.428    2.000
        3   -3.901  -22.743  -30.396    3.826    0.792   -3.032   -3.032   -6.933    2.000
        4   -3.901  -22.743  -30.396    3.826    0.792   -3.032   -3.032   -6.933    2.000
        5   -3.901  -22.743  -30.396    3.826    0.792   -3.032   -3.032   -6.933    2.000
        6    3.901  -10.304   -5.806   -2.983    0.878    1.330    1.330    5.231    0.000
        7   17.990   -9.323   -2.776   -4.024    0.874    2.195    2.195   20.185    0.000
        8   17.990   -9.323   -2.776   -4.024    0.874    2.195    2.195   20.185    0.000
        9   17.990   -9.323   -2.776   -4.024    0.874    2.195    2.195   20.185    0.000
...


--- !GWR_SelfEnergy_ee
iteration_state: {dtset: 3, }
kpoint     : [   0.500,    0.500,    0.000, ]
spin       : 1
gwr_scf_iteration: 1
gwr_task   : G0W0
QP_VBM_band: 5
QP_CBM_band: 6
KS_gap     :   14.154
QP_gap     :   19.331
Delta_QP_KS:    5.177
data: !Tabular |
     Band       E0 <VxcDFT>     SigX SigC(E0)        Z     E-E0  E-Eprev        E   Occ(E)
        1  -45.145  -25.687  -39.778    3.243    0.906   -9.821   -9.821  -54.966    2.000
        2  -22.921  -23.512  -38.335    9.123    0.721   -4.015   -4.015  -26.936    2.000
        3   -6.260  -18.565  -26.561    3.764    0.786   -3.326   -3.326   -9.586    2.000
        4   -4.678  -21.407  -29.247    3.841    0.789   -3.157   -3.157   -7.835    2.000
        5   -4.678  -21.407  -29.247    3.841    0.789   -3.157   -3.157   -7.835    2.000
        6    9.476  -13.666   -7.924   -3.368    0.851    2.020    2.020   11.496    0.000
        7   11.701   -9.666   -4.223   -3.540    0.879    1.671    1.671   13.371    0.000
        8   11.843   -6.888   -2.223   -3.358    0.878    1.147    1.147   12.990    0.000
...


================================================================================
== DATASET  4 ==================================================================
-   mpi_nproc: 512, omp_nthreads: -1 (-1 if OMP is not activated)


--- !DatasetInfo
iteration_state: {dtset: 4, }
dimensions: {natom: 2, nkpt: 29, mband: 480, nsppol: 1, nspinor: 1, nspden: 1, mpw: 1588, }
cutoff_energies: {ecut:  40.0, pawecutdg:  -1.0, }
electrons: {nelect:   1.00000000E+01, charge:   0.00000000E+00, occopt:   1.00000000E+00, tsmear:   1.00000000E-02, }
meta: {optdriver: 6, }
...

 mkfilename: getwfk from: ../outdata_gs_DS2_WFK

 mkfilename: getden from: ../outdata_gs_DS1_DEN

 Exchange-correlation functional for the present dataset will be:
  GGA: Perdew-Burke-Ernzerhof functional - ixc=11
 Citation for XC functional:
  J.P.Perdew, K.Burke, M.Ernzerhof, PRL 77, 3865 (1996)

.Using single precision arithmetic; gwpc =  4

- Reading GS density from: ../outdata_gs_DS1_DEN



--------------------------------------------------------------------------------

 Total charge density [el/Bohr^3]
)     Maximum=    2.7912E+00  at reduced coord.    0.0000    0.0000    0.0000
)     Minimum=    4.0719E-03  at reduced coord.    0.2500    0.2500    0.2500
   Integrated=    1.0000E+01
- Reading GS states from WFK file: ../outdata_gs_DS2_WFK
  Mapping kBZ --> kIBZ
 Legend: bz = TS(ibz) + g0 where isym is the index of the symrec operation S and itim is 1 if TR is used.
        BZ                                       IBZ                                       ibz  isym  itim  g0
     1  [ 0.0000E+00,  0.0000E+00,  0.0000E+00]  [ 0.0000E+00,  0.0000E+00,  0.0000E+00]     1     1     0  [0, 0, 0]
     2  [ 1.2500E-01,  0.0000E+00,  0.0000E+00]  [ 1.2500E-01,  0.0000E+00,  0.0000E+00]     2     1     0  [0, 0, 0]
     3  [-1.2500E-01,  0.0000E+00,  0.0000E+00]  [ 1.2500E-01,  0.0000E+00,  0.0000E+00]     2     2     0  [0, 0, 0]
     4  [ 0.0000E+00,  0.0000E+00, -1.2500E-01]  [ 1.2500E-01,  0.0000E+00,  0.0000E+00]     2     4     0  [0, 0, 0]
     5  [ 0.0000E+00,  1.2500E-01,  0.0000E+00]  [ 1.2500E-01,  0.0000E+00,  0.0000E+00]     2     7     0  [0, 0, 0]
     6  [ 1.2500E-01,  1.2500E-01,  1.2500E-01]  [ 1.2500E-01,  0.0000E+00,  0.0000E+00]     2     6     0  [0, 0, 0]
     7  [-1.2500E-01, -1.2500E-01, -1.2500E-01]  [ 1.2500E-01,  0.0000E+00,  0.0000E+00]     2     5     0  [0, 0, 0]
     8  [ 0.0000E+00, -1.2500E-01,  0.0000E+00]  [ 1.2500E-01,  0.0000E+00,  0.0000E+00]     2     8     0  [0, 0, 0]
     9  [ 0.0000E+00,  0.0000E+00,  1.2500E-01]  [ 1.2500E-01,  0.0000E+00,  0.0000E+00]     2     3     0  [0, 0, 0]
    10  [ 2.5000E-01,  0.0000E+00,  0.0000E+00]  [ 2.5000E-01,  0.0000E+00,  0.0000E+00]     3     1     0  [0, 0, 0]
    11  [ 2.5000E-01,  2.5000E-01,  2.5000E-01]  [ 2.5000E-01,  0.0000E+00,  0.0000E+00]     3     6     0  [0, 0, 0]
    12  [ 0.0000E+00,  2.5000E-01,  0.0000E+00]  [ 2.5000E-01,  0.0000E+00,  0.0000E+00]     3     7     0  [0, 0, 0]
    13  [ 0.0000E+00, -2.5000E-01,  0.0000E+00]  [ 2.5000E-01,  0.0000E+00,  0.0000E+00]     3     8     0  [0, 0, 0]
    14  [-2.5000E-01,  0.0000E+00,  0.0000E+00]  [ 2.5000E-01,  0.0000E+00,  0.0000E+00]     3     2     0  [0, 0, 0]
    15  [ 0.0000E+00,  0.0000E+00,  2.5000E-01]  [ 2.5000E-01,  0.0000E+00,  0.0000E+00]     3     3     0  [0, 0, 0]
    16  [ 0.0000E+00,  0.0000E+00, -2.5000E-01]  [ 2.5000E-01,  0.0000E+00,  0.0000E+00]     3     4     0  [0, 0, 0]
    17  [-2.5000E-01, -2.5000E-01, -2.5000E-01]  [ 2.5000E-01,  0.0000E+00,  0.0000E+00]     3     5     0  [0, 0, 0]
    18  [ 3.7500E-01,  0.0000E+00,  0.0000E+00]  [ 3.7500E-01,  0.0000E+00,  0.0000E+00]     4     1     0  [0, 0, 0]
    19  [-3.7500E-01, -3.7500E-01, -3.7500E-01]  [ 3.7500E-01,  0.0000E+00,  0.0000E+00]     4     5     0  [0, 0, 0]
    20  [ 0.0000E+00,  0.0000E+00, -3.7500E-01]  [ 3.7500E-01,  0.0000E+00,  0.0000E+00]     4     4     0  [0, 0, 0]
prtvol = 0, max 20 points are written


  Mapping qBZ --> qIBZ
 Legend: bz = TS(ibz) + g0 where isym is the index of the symrec operation S and itim is 1 if TR is used.
        BZ                                       IBZ                                       ibz  isym  itim  g0
     1  [ 0.0000E+00,  0.0000E+00,  0.0000E+00]  [ 0.0000E+00,  0.0000E+00,  0.0000E+00]     1     1     0  [0, 0, 0]
     2  [ 1.2500E-01,  0.0000E+00,  0.0000E+00]  [ 1.2500E-01,  0.0000E+00,  0.0000E+00]     2     1     0  [0, 0, 0]
     3  [-1.2500E-01,  0.0000E+00,  0.0000E+00]  [ 1.2500E-01,  0.0000E+00,  0.0000E+00]     2     2     0  [0, 0, 0]
     4  [ 0.0000E+00,  0.0000E+00, -1.2500E-01]  [ 1.2500E-01,  0.0000E+00,  0.0000E+00]     2     4     0  [0, 0, 0]
     5  [ 0.0000E+00,  1.2500E-01,  0.0000E+00]  [ 1.2500E-01,  0.0000E+00,  0.0000E+00]     2     7     0  [0, 0, 0]
     6  [ 1.2500E-01,  1.2500E-01,  1.2500E-01]  [ 1.2500E-01,  0.0000E+00,  0.0000E+00]     2     6     0  [0, 0, 0]
     7  [-1.2500E-01, -1.2500E-01, -1.2500E-01]  [ 1.2500E-01,  0.0000E+00,  0.0000E+00]     2     5     0  [0, 0, 0]
     8  [ 0.0000E+00, -1.2500E-01,  0.0000E+00]  [ 1.2500E-01,  0.0000E+00,  0.0000E+00]     2     8     0  [0, 0, 0]
     9  [ 0.0000E+00,  0.0000E+00,  1.2500E-01]  [ 1.2500E-01,  0.0000E+00,  0.0000E+00]     2     3     0  [0, 0, 0]
    10  [ 2.5000E-01,  0.0000E+00,  0.0000E+00]  [ 2.5000E-01,  0.0000E+00,  0.0000E+00]     3     1     0  [0, 0, 0]
    11  [ 2.5000E-01,  2.5000E-01,  2.5000E-01]  [ 2.5000E-01,  0.0000E+00,  0.0000E+00]     3     6     0  [0, 0, 0]
    12  [ 0.0000E+00,  2.5000E-01,  0.0000E+00]  [ 2.5000E-01,  0.0000E+00,  0.0000E+00]     3     7     0  [0, 0, 0]
    13  [ 0.0000E+00, -2.5000E-01,  0.0000E+00]  [ 2.5000E-01,  0.0000E+00,  0.0000E+00]     3     8     0  [0, 0, 0]
    14  [-2.5000E-01,  0.0000E+00,  0.0000E+00]  [ 2.5000E-01,  0.0000E+00,  0.0000E+00]     3     2     0  [0, 0, 0]
    15  [ 0.0000E+00,  0.0000E+00,  2.5000E-01]  [ 2.5000E-01,  0.0000E+00,  0.0000E+00]     3     3     0  [0, 0, 0]
    16  [ 0.0000E+00,  0.0000E+00, -2.5000E-01]  [ 2.5000E-01,  0.0000E+00,  0.0000E+00]     3     4     0  [0, 0, 0]
    17  [-2.5000E-01, -2.5000E-01, -2.5000E-01]  [ 2.5000E-01,  0.0000E+00,  0.0000E+00]     3     5     0  [0, 0, 0]
    18  [ 3.7500E-01,  0.0000E+00,  0.0000E+00]  [ 3.7500E-01,  0.0000E+00,  0.0000E+00]     4     1     0  [0, 0, 0]
    19  [-3.7500E-01, -3.7500E-01, -3.7500E-01]  [ 3.7500E-01,  0.0000E+00,  0.0000E+00]     4     5     0  [0, 0, 0]
    20  [ 0.0000E+00,  0.0000E+00, -3.7500E-01]  [ 3.7500E-01,  0.0000E+00,  0.0000E+00]     4     4     0  [0, 0, 0]
prtvol = 0, max 20 points are written



 === Kohn-Sham gaps and band edges from IBZ mesh ===
 Direct band gap semiconductor
 Fundamental gap:     7.802 (eV)
   VBM:    -3.901 (eV) at k: [ 0.0000E+00,  0.0000E+00,  0.0000E+00]
   CBM:     3.901 (eV) at k: [ 0.0000E+00,  0.0000E+00,  0.0000E+00]
 Direct gap:         7.802 (eV) at k: [ 0.0000E+00,  0.0000E+00,  0.0000E+00]


 ==== FFT mesh for Green's function ====
  FFT mesh divisions ........................    18   18   18
  Augmented FFT divisions ...................    18   18   18
  FFT algorithm .............................   312
  FFT cache size ............................    16
- FFT uc_batch_size: 4
- FFT sc_batch_size: 4
 ==== Info on the GWR object ====

--- !GWR_params
iteration_state: {dtset: 4, }
gwr_task: G0W0
nband: 480
ntau: 12
ngkpt: [8, 8, 8, ]
ngqpt: [8, 8, 8, ]
chi_algo: supercell
sigma_algo: 'BZ-convolutions'
nkibz: 29
nqibz: 29
inclvkb: 2
q0: [  1.00000000E-05,   2.00000000E-05,   3.00000000E-05, ]
gw_icutcoul: 6
green_mpw: 1588
tchi_mpw: 273
g_ngfft: [18, 18, 18, 18, 18, 18, ]
P gwr_np_kgts: [4, 64, 2, 1, ]
P np_kibz: [
    1, 1, 1, 1, 1, 1, 1, 1, 
    1, 2, 1, 1, 1, 1, 1, 1, 
    2, 1, 1, 1, 1, 1, 1, 2, 
    1, 1, 1, 1, 1, 
]
P np_qibz: [
    1, 1, 1, 1, 1, 1, 1, 1, 
    1, 2, 1, 1, 1, 1, 1, 1, 
    2, 1, 1, 1, 1, 1, 1, 2, 
    1, 1, 1, 1, 1, 
]
ft_max_err_t2w_cos:   2.68458146E-05
ft_max_err_w2t_cos:   2.63734562E-06
ft_max_err_t2w_sin:   4.51794843E-04
cosft_duality_error:   5.56034038E-03
Minimax imaginary tau/omega mesh: !Tabular | # tau, weight(tau), omega, weight(omega)
    1 8.30464E-03   2.14657E-02   6.10622E-02   1.24114E-01
    2 4.51534E-02   5.32248E-02   1.95446E-01   1.49169E-01
    3 1.17830E-01   9.43528E-02   3.69896E-01   2.05980E-01
    4 2.40199E-01   1.54708E-01   6.22889E-01   3.09653E-01
    5 4.38883E-01   2.50228E-01   1.01393E+00   4.88202E-01
    6 7.60163E-01   4.04625E-01   1.64056E+00   7.91844E-01
    7 1.27917E+00   6.52711E-01   2.66877E+00   1.31143E+00
    8 2.11418E+00   1.04760E+00   4.39061E+00   2.21796E+00
    9 3.45117E+00   1.67491E+00   7.34677E+00   3.86550E+00
    10 5.59075E+00   2.68762E+00   1.26516E+01   7.16152E+00
    11 9.06277E+00   4.42916E+00   2.32585E+01   1.56040E+01
    12 1.50656E+01   8.17777E+00   5.30942E+01   5.79246E+01
...


 Computing chi0 head and wings with inclvkb: 2
 Using KS orbitals and KS energies...


 ==== FFT mesh for chi0 head/wings computation ====
  FFT mesh divisions ........................    36   36   36
  Augmented FFT divisions ...................    37   37   36
  FFT algorithm .............................   312
  FFT cache size ............................    16

 Computing diagonal matrix elements of Sigma_x
 Using KS orbitals and KS energies...


 ==== FFT mesh for Sigma_x ====
  FFT mesh divisions ........................    36   36   36
  Augmented FFT divisions ...................    37   37   36
  FFT algorithm .............................   312
  FFT cache size ............................    16


 Building Green's functions from KS orbitals and KS energies...
