
.Version 9.9.2 of ABINIT 
.(MPI version, prepared for a x86_64_linux_gnu11.2 computer) 

.Copyright (C) 1998-2022 ABINIT group . 
 ABINIT comes with ABSOLUTELY NO WARRANTY.
 It is free software, and you are welcome to redistribute it
 under certain conditions (GNU General Public License,
 see ~abinit/COPYING or http://www.gnu.org/copyleft/gpl.txt).

 ABINIT is a project of the Universite Catholique de Louvain,
 Corning Inc. and other collaborators, see ~abinit/doc/developers/contributors.txt .
 Please read https://docs.abinit.org/theory/acknowledgments for suggested
 acknowledgments of the ABINIT effort.
 For more information, see https://www.abinit.org .

.Starting date : Fri 17 Feb 2023.
- ( at 10h09 )
  
- input  file    -> run.abi
- output file    -> run.abo
- root for input  files -> ../indata_gs
- root for output files -> outdata_gwr


 DATASET    1 : space group Fm -3 m (#225); Bravais cF (face-center cubic)
================================================================================
 Values of the parameters that define the memory need for DATASET  1.
     intxc =       0    ionmov =       0      iscf =       7    lmnmax =       5
     lnmax =       5     mgfft =      32  mpssoang =       3    mqgrid =    3001
     natom =       2  nloc_mem =       1    nspden =       1   nspinor =       1
    nsppol =       1      nsym =      48    n1xccc =    2501    ntypat =       2
    occopt =       1   xclevel =       2
-    mband =         480        mffmem =           1         mkmem =           1
       mpw =        1363          nfft =       32768          nkpt =          29
================================================================================
P This job should need less than                      28.943 Mbytes of memory.
  Rough estimation (10% accuracy) of disk space for files :
_ WF disk file :    289.506 Mbytes ; DEN or POT disk file :      0.252 Mbytes.
================================================================================


 DATASET    2 : space group Fm -3 m (#225); Bravais cF (face-center cubic)
================================================================================
 Values of the parameters that define the memory need for DATASET  2.
     intxc =       0    ionmov =       0      iscf =       7    lmnmax =       5
     lnmax =       5     mgfft =      32  mpssoang =       3    mqgrid =    3001
     natom =       2  nloc_mem =       1    nspden =       1   nspinor =       1
    nsppol =       1      nsym =      48    n1xccc =    2501    ntypat =       2
    occopt =       1   xclevel =       2
-    mband =         480        mffmem =           1         mkmem =           1
       mpw =        1363          nfft =       32768          nkpt =          29
================================================================================
P This job should need less than                      28.943 Mbytes of memory.
  Rough estimation (10% accuracy) of disk space for files :
_ WF disk file :    289.506 Mbytes ; DEN or POT disk file :      0.252 Mbytes.
================================================================================


 DATASET    3 : space group Fm -3 m (#225); Bravais cF (face-center cubic)
================================================================================
 Values of the parameters that define the memory need for DATASET  3.
     intxc =       0    ionmov =       0      iscf =       7    lmnmax =       5
     lnmax =       5     mgfft =      32  mpssoang =       3    mqgrid =    3001
     natom =       2  nloc_mem =       1    nspden =       1   nspinor =       1
    nsppol =       1      nsym =      48    n1xccc =    2501    ntypat =       2
    occopt =       1   xclevel =       2
-    mband =         480        mffmem =           1         mkmem =           1
       mpw =        1363          nfft =       32768          nkpt =          29
================================================================================
P This job should need less than                      28.943 Mbytes of memory.
  Rough estimation (10% accuracy) of disk space for files :
_ WF disk file :    289.506 Mbytes ; DEN or POT disk file :      0.252 Mbytes.
================================================================================


 DATASET    4 : space group Fm -3 m (#225); Bravais cF (face-center cubic)
================================================================================
 Values of the parameters that define the memory need for DATASET  4.
     intxc =       0    ionmov =       0      iscf =       7    lmnmax =       5
     lnmax =       5     mgfft =      32  mpssoang =       3    mqgrid =    3001
     natom =       2  nloc_mem =       1    nspden =       1   nspinor =       1
    nsppol =       1      nsym =      48    n1xccc =    2501    ntypat =       2
    occopt =       1   xclevel =       2
-    mband =         480        mffmem =           1         mkmem =           1
       mpw =        1363          nfft =       32768          nkpt =          29
================================================================================
P This job should need less than                      28.943 Mbytes of memory.
  Rough estimation (10% accuracy) of disk space for files :
_ WF disk file :    289.506 Mbytes ; DEN or POT disk file :      0.252 Mbytes.
================================================================================


 DATASET    5 : space group Fm -3 m (#225); Bravais cF (face-center cubic)
================================================================================
 Values of the parameters that define the memory need for DATASET  5.
     intxc =       0    ionmov =       0      iscf =       7    lmnmax =       5
     lnmax =       5     mgfft =      32  mpssoang =       3    mqgrid =    3001
     natom =       2  nloc_mem =       1    nspden =       1   nspinor =       1
    nsppol =       1      nsym =      48    n1xccc =    2501    ntypat =       2
    occopt =       1   xclevel =       2
-    mband =         480        mffmem =           1         mkmem =           1
       mpw =        1363          nfft =       32768          nkpt =          29
================================================================================
P This job should need less than                      28.943 Mbytes of memory.
  Rough estimation (10% accuracy) of disk space for files :
_ WF disk file :    289.506 Mbytes ; DEN or POT disk file :      0.252 Mbytes.
================================================================================


 DATASET    6 : space group Fm -3 m (#225); Bravais cF (face-center cubic)
================================================================================
 Values of the parameters that define the memory need for DATASET  6.
     intxc =       0    ionmov =       0      iscf =       7    lmnmax =       5
     lnmax =       5     mgfft =      32  mpssoang =       3    mqgrid =    3001
     natom =       2  nloc_mem =       1    nspden =       1   nspinor =       1
    nsppol =       1      nsym =      48    n1xccc =    2501    ntypat =       2
    occopt =       1   xclevel =       2
-    mband =         480        mffmem =           1         mkmem =           1
       mpw =        1363          nfft =       32768          nkpt =          29
================================================================================
P This job should need less than                      28.943 Mbytes of memory.
  Rough estimation (10% accuracy) of disk space for files :
_ WF disk file :    289.506 Mbytes ; DEN or POT disk file :      0.252 Mbytes.
================================================================================


 DATASET    7 : space group Fm -3 m (#225); Bravais cF (face-center cubic)
================================================================================
 Values of the parameters that define the memory need for DATASET  7.
     intxc =       0    ionmov =       0      iscf =       7    lmnmax =       5
     lnmax =       5     mgfft =      32  mpssoang =       3    mqgrid =    3001
     natom =       2  nloc_mem =       1    nspden =       1   nspinor =       1
    nsppol =       1      nsym =      48    n1xccc =    2501    ntypat =       2
    occopt =       1   xclevel =       2
-    mband =         480        mffmem =           1         mkmem =           1
       mpw =        1363          nfft =       32768          nkpt =          29
================================================================================
P This job should need less than                      28.943 Mbytes of memory.
  Rough estimation (10% accuracy) of disk space for files :
_ WF disk file :    289.506 Mbytes ; DEN or POT disk file :      0.252 Mbytes.
================================================================================


 DATASET    8 : space group Fm -3 m (#225); Bravais cF (face-center cubic)
================================================================================
 Values of the parameters that define the memory need for DATASET  8.
     intxc =       0    ionmov =       0      iscf =       7    lmnmax =       5
     lnmax =       5     mgfft =      32  mpssoang =       3    mqgrid =    3001
     natom =       2  nloc_mem =       1    nspden =       1   nspinor =       1
    nsppol =       1      nsym =      48    n1xccc =    2501    ntypat =       2
    occopt =       1   xclevel =       2
-    mband =         480        mffmem =           1         mkmem =           1
       mpw =        1363          nfft =       32768          nkpt =          29
================================================================================
P This job should need less than                      28.943 Mbytes of memory.
  Rough estimation (10% accuracy) of disk space for files :
_ WF disk file :    289.506 Mbytes ; DEN or POT disk file :      0.252 Mbytes.
================================================================================


 DATASET    9 : space group Fm -3 m (#225); Bravais cF (face-center cubic)
================================================================================
 Values of the parameters that define the memory need for DATASET  9.
     intxc =       0    ionmov =       0      iscf =       7    lmnmax =       5
     lnmax =       5     mgfft =      32  mpssoang =       3    mqgrid =    3001
     natom =       2  nloc_mem =       1    nspden =       1   nspinor =       1
    nsppol =       1      nsym =      48    n1xccc =    2501    ntypat =       2
    occopt =       1   xclevel =       2
-    mband =         480        mffmem =           1         mkmem =           1
       mpw =        1363          nfft =       32768          nkpt =          29
================================================================================
P This job should need less than                      28.943 Mbytes of memory.
  Rough estimation (10% accuracy) of disk space for files :
_ WF disk file :    289.506 Mbytes ; DEN or POT disk file :      0.252 Mbytes.
================================================================================


 DATASET   10 : space group Fm -3 m (#225); Bravais cF (face-center cubic)
================================================================================
 Values of the parameters that define the memory need for DATASET 10.
     intxc =       0    ionmov =       0      iscf =       7    lmnmax =       5
     lnmax =       5     mgfft =      32  mpssoang =       3    mqgrid =    3001
     natom =       2  nloc_mem =       1    nspden =       1   nspinor =       1
    nsppol =       1      nsym =      48    n1xccc =    2501    ntypat =       2
    occopt =       1   xclevel =       2
-    mband =         480        mffmem =           1         mkmem =           1
       mpw =        1363          nfft =       32768          nkpt =          29
================================================================================
P This job should need less than                      28.943 Mbytes of memory.
  Rough estimation (10% accuracy) of disk space for files :
_ WF disk file :    289.506 Mbytes ; DEN or POT disk file :      0.252 Mbytes.
================================================================================

--------------------------------------------------------------------------------
------------- Echo of variables that govern the present computation ------------
--------------------------------------------------------------------------------
-
- outvars: echo of selected default values                                      
-   iomode0 =  0 , fftalg0 =312 , wfoptalg0 =  0
-
- outvars: echo of global parameters not present in the input file              
-  max_nthreads =    0
-
 -outvars: echo values of preprocessed input variables --------
            acell      7.5778017929E+00  7.5778017929E+00  7.5778017929E+00 Bohr
              amu      6.94100000E+00  1.89984032E+01
             bdgw           1       8       1       8
           diemac      1.20000000E+01
             ecut      4.00000000E+01 Hartree
          ecuteps      1.20000000E+01 Hartree
         ecutsigx      4.00000000E+01 Hartree
-          fftalg         312
-     gwr_np_kgts        4   64    2    1
-  gwr_ucsc_batch        4    4
         gwr_ntau1          6
         gwr_ntau2          8
         gwr_ntau3         10
         gwr_ntau4         12
         gwr_ntau5         14
         gwr_ntau6         16
         gwr_ntau7         18
         gwr_ntau8         20
         gwr_ntau9         22
         gwr_ntau10        24
   gwr_sigma_algo           2
           istwfk        1    0    0    0    1    0    0    0    0    0
                         0    0    0    0    0    0    0    0    0    0
                         1    0    0    0    0    0    0    0    0
              ixc          11
           jdtset        1    2    3    4    5    6    7    8    9   10
              kpt      0.00000000E+00  0.00000000E+00  0.00000000E+00
                       1.25000000E-01  0.00000000E+00  0.00000000E+00
                       2.50000000E-01  0.00000000E+00  0.00000000E+00
                       3.75000000E-01  0.00000000E+00  0.00000000E+00
                       5.00000000E-01  0.00000000E+00  0.00000000E+00
                       1.25000000E-01  1.25000000E-01  0.00000000E+00
                       2.50000000E-01  1.25000000E-01  0.00000000E+00
                       3.75000000E-01  1.25000000E-01  0.00000000E+00
                       5.00000000E-01  1.25000000E-01  0.00000000E+00
                      -3.75000000E-01  1.25000000E-01  0.00000000E+00
                      -2.50000000E-01  1.25000000E-01  0.00000000E+00
                      -1.25000000E-01  1.25000000E-01  0.00000000E+00
                       2.50000000E-01  2.50000000E-01  0.00000000E+00
                       3.75000000E-01  2.50000000E-01  0.00000000E+00
                       5.00000000E-01  2.50000000E-01  0.00000000E+00
                      -3.75000000E-01  2.50000000E-01  0.00000000E+00
                      -2.50000000E-01  2.50000000E-01  0.00000000E+00
                       3.75000000E-01  3.75000000E-01  0.00000000E+00
                       5.00000000E-01  3.75000000E-01  0.00000000E+00
                      -3.75000000E-01  3.75000000E-01  0.00000000E+00
                       5.00000000E-01  5.00000000E-01  0.00000000E+00
                       3.75000000E-01  2.50000000E-01  1.25000000E-01
                       5.00000000E-01  2.50000000E-01  1.25000000E-01
                      -3.75000000E-01  2.50000000E-01  1.25000000E-01
                       5.00000000E-01  3.75000000E-01  1.25000000E-01
                      -3.75000000E-01  3.75000000E-01  1.25000000E-01
                      -2.50000000E-01  3.75000000E-01  1.25000000E-01
                      -3.75000000E-01  5.00000000E-01  1.25000000E-01
                      -2.50000000E-01  5.00000000E-01  2.50000000E-01
            kptgw      0.00000000E+00  0.00000000E+00  0.00000000E+00
                       5.00000000E-01  5.00000000E-01  0.00000000E+00
         kptrlatt        8    0    0      0    8    0      0    0    8
          kptrlen      4.28665203E+01
P           mkmem           1
            natom           2
            nband         480
           ndtset          10
            ngfft          32      32      32
             nkpt          29
           nkptgw           2
            nstep          50
             nsym          48
           ntypat           2
              occ      2.000000  2.000000  2.000000  2.000000  2.000000  0.000000
                       0.000000  0.000000  0.000000  0.000000  0.000000  0.000000
                       0.000000  0.000000  0.000000  0.000000  0.000000  0.000000
                       0.000000  0.000000  0.000000  0.000000  0.000000  0.000000
                       0.000000  0.000000  0.000000  0.000000  0.000000  0.000000
                       0.000000  0.000000  0.000000  0.000000  0.000000  0.000000
                       0.000000  0.000000  0.000000  0.000000  0.000000  0.000000
                       0.000000  0.000000  0.000000  0.000000  0.000000  0.000000
                       0.000000  0.000000  0.000000  0.000000  0.000000  0.000000
                       0.000000  0.000000  0.000000  0.000000  0.000000  0.000000
                       0.000000  0.000000  0.000000  0.000000  0.000000  0.000000
                       0.000000  0.000000  0.000000  0.000000  0.000000  0.000000
                       0.000000  0.000000  0.000000  0.000000  0.000000  0.000000
                       0.000000  0.000000  0.000000  0.000000  0.000000  0.000000
                       0.000000  0.000000  0.000000  0.000000  0.000000  0.000000
                       0.000000  0.000000  0.000000  0.000000  0.000000  0.000000
                       0.000000  0.000000  0.000000  0.000000  0.000000  0.000000
                       0.000000  0.000000  0.000000  0.000000  0.000000  0.000000
                       0.000000  0.000000  0.000000  0.000000  0.000000  0.000000
                       0.000000  0.000000  0.000000  0.000000  0.000000  0.000000
                       0.000000  0.000000  0.000000  0.000000  0.000000  0.000000
                       0.000000  0.000000  0.000000  0.000000  0.000000  0.000000
                       0.000000  0.000000  0.000000  0.000000  0.000000  0.000000
                       0.000000  0.000000  0.000000  0.000000  0.000000  0.000000
                       0.000000  0.000000  0.000000  0.000000  0.000000  0.000000
                       0.000000  0.000000  0.000000  0.000000  0.000000  0.000000
                       0.000000  0.000000  0.000000  0.000000  0.000000  0.000000
                       0.000000  0.000000  0.000000  0.000000  0.000000  0.000000
                       0.000000  0.000000  0.000000  0.000000  0.000000  0.000000
                       0.000000  0.000000  0.000000  0.000000  0.000000  0.000000
                       0.000000  0.000000  0.000000  0.000000  0.000000  0.000000
                       0.000000  0.000000  0.000000  0.000000  0.000000  0.000000
                       0.000000  0.000000  0.000000  0.000000  0.000000  0.000000
                       0.000000  0.000000  0.000000  0.000000  0.000000  0.000000
                       0.000000  0.000000  0.000000  0.000000  0.000000  0.000000
                       0.000000  0.000000  0.000000  0.000000  0.000000  0.000000
                       0.000000  0.000000  0.000000  0.000000  0.000000  0.000000
                       0.000000  0.000000  0.000000  0.000000  0.000000  0.000000
                       0.000000  0.000000  0.000000  0.000000  0.000000  0.000000
                       0.000000  0.000000  0.000000  0.000000  0.000000  0.000000
                       0.000000  0.000000  0.000000  0.000000  0.000000  0.000000
                       0.000000  0.000000  0.000000  0.000000  0.000000  0.000000
                       0.000000  0.000000  0.000000  0.000000  0.000000  0.000000
                       0.000000  0.000000  0.000000  0.000000  0.000000  0.000000
                       0.000000  0.000000  0.000000  0.000000  0.000000  0.000000
                       0.000000  0.000000  0.000000  0.000000  0.000000  0.000000
                       0.000000  0.000000  0.000000  0.000000  0.000000  0.000000
                       0.000000  0.000000  0.000000  0.000000  0.000000  0.000000
                       0.000000  0.000000  0.000000  0.000000  0.000000  0.000000
                       0.000000  0.000000  0.000000  0.000000  0.000000  0.000000
                       0.000000  0.000000  0.000000  0.000000  0.000000  0.000000
                       0.000000  0.000000  0.000000  0.000000  0.000000  0.000000
                       0.000000  0.000000  0.000000  0.000000  0.000000  0.000000
                       0.000000  0.000000  0.000000  0.000000  0.000000  0.000000
                       0.000000  0.000000  0.000000  0.000000  0.000000  0.000000
                       0.000000  0.000000  0.000000  0.000000  0.000000  0.000000
                       0.000000  0.000000  0.000000  0.000000  0.000000  0.000000
                       0.000000  0.000000  0.000000  0.000000  0.000000  0.000000
                       0.000000  0.000000  0.000000  0.000000  0.000000  0.000000
                       0.000000  0.000000  0.000000  0.000000  0.000000  0.000000
                       0.000000  0.000000  0.000000  0.000000  0.000000  0.000000
                       0.000000  0.000000  0.000000  0.000000  0.000000  0.000000
                       0.000000  0.000000  0.000000  0.000000  0.000000  0.000000
                       0.000000  0.000000  0.000000  0.000000  0.000000  0.000000
                       0.000000  0.000000  0.000000  0.000000  0.000000  0.000000
                       0.000000  0.000000  0.000000  0.000000  0.000000  0.000000
                       0.000000  0.000000  0.000000  0.000000  0.000000  0.000000
                       0.000000  0.000000  0.000000  0.000000  0.000000  0.000000
                       0.000000  0.000000  0.000000  0.000000  0.000000  0.000000
                       0.000000  0.000000  0.000000  0.000000  0.000000  0.000000
                       0.000000  0.000000  0.000000  0.000000  0.000000  0.000000
                       0.000000  0.000000  0.000000  0.000000  0.000000  0.000000
                       0.000000  0.000000  0.000000  0.000000  0.000000  0.000000
                       0.000000  0.000000  0.000000  0.000000  0.000000  0.000000
                       0.000000  0.000000  0.000000  0.000000  0.000000  0.000000
                       0.000000  0.000000  0.000000  0.000000  0.000000  0.000000
                       0.000000  0.000000  0.000000  0.000000  0.000000  0.000000
                       0.000000  0.000000  0.000000  0.000000  0.000000  0.000000
                       0.000000  0.000000  0.000000  0.000000  0.000000  0.000000
                       0.000000  0.000000  0.000000  0.000000  0.000000  0.000000
        optdriver           6
            rprim      0.0000000000E+00  5.0000000000E-01  5.0000000000E-01
                       5.0000000000E-01  0.0000000000E+00  5.0000000000E-01
                       5.0000000000E-01  5.0000000000E-01  0.0000000000E+00
          spgroup         225
           symrel      1  0  0   0  1  0   0  0  1      -1  0  0   0 -1  0   0  0 -1
                       0 -1  1   0 -1  0   1 -1  0       0  1 -1   0  1  0  -1  1  0
                      -1  0  0  -1  0  1  -1  1  0       1  0  0   1  0 -1   1 -1  0
                       0  1 -1   1  0 -1   0  0 -1       0 -1  1  -1  0  1   0  0  1
                      -1  0  0  -1  1  0  -1  0  1       1  0  0   1 -1  0   1  0 -1
                       0 -1  1   1 -1  0   0 -1  0       0  1 -1  -1  1  0   0  1  0
                       1  0  0   0  0  1   0  1  0      -1  0  0   0  0 -1   0 -1  0
                       0  1 -1   0  0 -1   1  0 -1       0 -1  1   0  0  1  -1  0  1
                      -1  0  1  -1  1  0  -1  0  0       1  0 -1   1 -1  0   1  0  0
                       0 -1  0   1 -1  0   0 -1  1       0  1  0  -1  1  0   0  1 -1
                       1  0 -1   0  0 -1   0  1 -1      -1  0  1   0  0  1   0 -1  1
                       0  1  0   0  0  1   1  0  0       0 -1  0   0  0 -1  -1  0  0
                       1  0 -1   0  1 -1   0  0 -1      -1  0  1   0 -1  1   0  0  1
                       0 -1  0   0 -1  1   1 -1  0       0  1  0   0  1 -1  -1  1  0
                      -1  0  1  -1  0  0  -1  1  0       1  0 -1   1  0  0   1 -1  0
                       0  1  0   1  0  0   0  0  1       0 -1  0  -1  0  0   0  0 -1
                       0  0 -1   0  1 -1   1  0 -1       0  0  1   0 -1  1  -1  0  1
                       1 -1  0   0 -1  1   0 -1  0      -1  1  0   0  1 -1   0  1  0
                       0  0  1   1  0  0   0  1  0       0  0 -1  -1  0  0   0 -1  0
                      -1  1  0  -1  0  0  -1  0  1       1 -1  0   1  0  0   1  0 -1
                       0  0  1   0  1  0   1  0  0       0  0 -1   0 -1  0  -1  0  0
                       1 -1  0   0 -1  0   0 -1  1      -1  1  0   0  1  0   0  1 -1
                       0  0 -1   1  0 -1   0  1 -1       0  0  1  -1  0  1   0 -1  1
                      -1  1  0  -1  0  1  -1  0  0       1 -1  0   1  0 -1   1  0  0
           timopt          -1
            typat      1  2
              wtk        0.00195    0.01563    0.01563    0.01563    0.00781    0.01172
                         0.04688    0.04688    0.04688    0.04688    0.04688    0.02344
                         0.01172    0.04688    0.04688    0.04688    0.02344    0.01172
                         0.04688    0.02344    0.00586    0.04688    0.09375    0.04688
                         0.04688    0.09375    0.04688    0.02344    0.01172
           xangst      0.0000000000E+00  0.0000000000E+00  0.0000000000E+00
                       2.0050000000E+00  2.0050000000E+00  2.0050000000E+00
            xcart      0.0000000000E+00  0.0000000000E+00  0.0000000000E+00
                       3.7889008964E+00  3.7889008964E+00  3.7889008964E+00
             xred      0.0000000000E+00  0.0000000000E+00  0.0000000000E+00
                       5.0000000000E-01  5.0000000000E-01  5.0000000000E-01
            znucl        3.00000    9.00000

================================================================================

 chkinp: Checking input parameters for consistency, jdtset=   1.

 chkinp: Checking input parameters for consistency, jdtset=   2.

 chkinp: Checking input parameters for consistency, jdtset=   3.

 chkinp: Checking input parameters for consistency, jdtset=   4.

 chkinp: Checking input parameters for consistency, jdtset=   5.

 chkinp: Checking input parameters for consistency, jdtset=   6.

 chkinp: Checking input parameters for consistency, jdtset=   7.

 chkinp: Checking input parameters for consistency, jdtset=   8.

 chkinp: Checking input parameters for consistency, jdtset=   9.

 chkinp: Checking input parameters for consistency, jdtset=  10.

================================================================================
== DATASET  1 ==================================================================
-   mpi_nproc: 512, omp_nthreads: -1 (-1 if OMP is not activated)


--- !DatasetInfo
iteration_state: {dtset: 1, }
dimensions: {natom: 2, nkpt: 29, mband: 480, nsppol: 1, nspinor: 1, nspden: 1, mpw: 1363, }
cutoff_energies: {ecut:  40.0, pawecutdg:  -1.0, }
electrons: {nelect:   1.00000000E+01, charge:   0.00000000E+00, occopt:   1.00000000E+00, tsmear:   1.00000000E-02, }
meta: {optdriver: 6, }
...

 mkfilename: getwfk from: ../outdata_gs_DS2_WFK

 mkfilename: getden from: ../outdata_gs_DS1_DEN

 Exchange-correlation functional for the present dataset will be:
  GGA: Perdew-Burke-Ernzerhof functional - ixc=11
 Citation for XC functional:
  J.P.Perdew, K.Burke, M.Ernzerhof, PRL 77, 3865 (1996)

.Using single precision arithmetic; gwpc =  4

- Reading GS density from: ../outdata_gs_DS1_DEN




--- Pseudopotential description ------------------------------------------------
- pspini: atom type   1  psp file is ../Li.psp8
- pspatm: opening atomic psp file    ../Li.psp8
- Li    ONCVPSP-3.2.3.1  r_core=   1.40824   1.10935
-  3.00000   3.00000    170503                znucl, zion, pspdat
    8   11    1    4       400   0.00000      pspcod,pspxc,lmax,lloc,mmax,r2well
    3.99000000000000    0.00000000000000    0.00000000000000   rchrg,fchrg,qchrg
     nproj     2     2
     extension_switch     1
  pspatm : epsatm=    2.74345787
         --- l  ekb(1:nproj) -->
             0   -4.951544   -1.544797
             1   -2.250662   -0.474685
 pspatm: atomic psp has been read  and splines computed

- pspini: atom type   2  psp file is ../F.psp8
- pspatm: opening atomic psp file    ../F.psp8
- F     ONCVPSP-3.2.3.1  r_core=   1.30942   1.45782   1.60379
-  9.00000   7.00000    170504                znucl, zion, pspdat
    8   11    2    4       600   0.00000      pspcod,pspxc,lmax,lloc,mmax,r2well
    5.99000000000000    2.50000000000000    0.00000000000000   rchrg,fchrg,qchrg
     nproj     2     2     1
     extension_switch     1
  pspatm : epsatm=    4.87626060
         --- l  ekb(1:nproj) -->
             0    6.519403    1.070094
             1   -3.955629   -1.291931
             2   -2.441503
 pspatm: atomic psp has been read  and splines computed

   7.61971847E+01                                ecore*ucvol(ha*bohr**3)
--------------------------------------------------------------------------------

 Total charge density [el/Bohr^3]
)     Maximum=    2.7976E+00  at reduced coord.    0.0000    0.0000    0.0000
)     Minimum=    5.7388E-03  at reduced coord.    0.2500    0.2500    0.2500
   Integrated=    1.0000E+01
- Reading GS states from WFK file: ../outdata_gs_DS2_WFK
  Mapping kBZ --> kIBZ
 Legend: bz = TS(ibz) + g0 where isym is the index of the symrec operation S and itim is 1 if TR is used.
        BZ                                       IBZ                                       ibz  isym  itim  g0
     1  [ 0.0000E+00,  0.0000E+00,  0.0000E+00]  [ 0.0000E+00,  0.0000E+00,  0.0000E+00]     1     1     0  [0, 0, 0]
     2  [ 1.2500E-01,  0.0000E+00,  0.0000E+00]  [ 1.2500E-01,  0.0000E+00,  0.0000E+00]     2     1     0  [0, 0, 0]
     3  [-1.2500E-01,  0.0000E+00,  0.0000E+00]  [ 1.2500E-01,  0.0000E+00,  0.0000E+00]     2     2     0  [0, 0, 0]
     4  [ 0.0000E+00,  0.0000E+00, -1.2500E-01]  [ 1.2500E-01,  0.0000E+00,  0.0000E+00]     2     4     0  [0, 0, 0]
     5  [ 0.0000E+00,  1.2500E-01,  0.0000E+00]  [ 1.2500E-01,  0.0000E+00,  0.0000E+00]     2     7     0  [0, 0, 0]
     6  [ 1.2500E-01,  1.2500E-01,  1.2500E-01]  [ 1.2500E-01,  0.0000E+00,  0.0000E+00]     2     6     0  [0, 0, 0]
     7  [-1.2500E-01, -1.2500E-01, -1.2500E-01]  [ 1.2500E-01,  0.0000E+00,  0.0000E+00]     2     5     0  [0, 0, 0]
     8  [ 0.0000E+00, -1.2500E-01,  0.0000E+00]  [ 1.2500E-01,  0.0000E+00,  0.0000E+00]     2     8     0  [0, 0, 0]
     9  [ 0.0000E+00,  0.0000E+00,  1.2500E-01]  [ 1.2500E-01,  0.0000E+00,  0.0000E+00]     2     3     0  [0, 0, 0]
    10  [ 2.5000E-01,  0.0000E+00,  0.0000E+00]  [ 2.5000E-01,  0.0000E+00,  0.0000E+00]     3     1     0  [0, 0, 0]
    11  [ 2.5000E-01,  2.5000E-01,  2.5000E-01]  [ 2.5000E-01,  0.0000E+00,  0.0000E+00]     3     6     0  [0, 0, 0]
    12  [ 0.0000E+00,  2.5000E-01,  0.0000E+00]  [ 2.5000E-01,  0.0000E+00,  0.0000E+00]     3     7     0  [0, 0, 0]
    13  [ 0.0000E+00, -2.5000E-01,  0.0000E+00]  [ 2.5000E-01,  0.0000E+00,  0.0000E+00]     3     8     0  [0, 0, 0]
    14  [-2.5000E-01,  0.0000E+00,  0.0000E+00]  [ 2.5000E-01,  0.0000E+00,  0.0000E+00]     3     2     0  [0, 0, 0]
    15  [ 0.0000E+00,  0.0000E+00,  2.5000E-01]  [ 2.5000E-01,  0.0000E+00,  0.0000E+00]     3     3     0  [0, 0, 0]
    16  [ 0.0000E+00,  0.0000E+00, -2.5000E-01]  [ 2.5000E-01,  0.0000E+00,  0.0000E+00]     3     4     0  [0, 0, 0]
    17  [-2.5000E-01, -2.5000E-01, -2.5000E-01]  [ 2.5000E-01,  0.0000E+00,  0.0000E+00]     3     5     0  [0, 0, 0]
    18  [ 3.7500E-01,  0.0000E+00,  0.0000E+00]  [ 3.7500E-01,  0.0000E+00,  0.0000E+00]     4     1     0  [0, 0, 0]
    19  [-3.7500E-01, -3.7500E-01, -3.7500E-01]  [ 3.7500E-01,  0.0000E+00,  0.0000E+00]     4     5     0  [0, 0, 0]
    20  [ 0.0000E+00,  0.0000E+00, -3.7500E-01]  [ 3.7500E-01,  0.0000E+00,  0.0000E+00]     4     4     0  [0, 0, 0]
prtvol = 0, max 20 points are written


  Mapping qBZ --> qIBZ
 Legend: bz = TS(ibz) + g0 where isym is the index of the symrec operation S and itim is 1 if TR is used.
        BZ                                       IBZ                                       ibz  isym  itim  g0
     1  [ 0.0000E+00,  0.0000E+00,  0.0000E+00]  [ 0.0000E+00,  0.0000E+00,  0.0000E+00]     1     1     0  [0, 0, 0]
     2  [ 1.2500E-01,  0.0000E+00,  0.0000E+00]  [ 1.2500E-01,  0.0000E+00,  0.0000E+00]     2     1     0  [0, 0, 0]
     3  [-1.2500E-01,  0.0000E+00,  0.0000E+00]  [ 1.2500E-01,  0.0000E+00,  0.0000E+00]     2     2     0  [0, 0, 0]
     4  [ 0.0000E+00,  0.0000E+00, -1.2500E-01]  [ 1.2500E-01,  0.0000E+00,  0.0000E+00]     2     4     0  [0, 0, 0]
     5  [ 0.0000E+00,  1.2500E-01,  0.0000E+00]  [ 1.2500E-01,  0.0000E+00,  0.0000E+00]     2     7     0  [0, 0, 0]
     6  [ 1.2500E-01,  1.2500E-01,  1.2500E-01]  [ 1.2500E-01,  0.0000E+00,  0.0000E+00]     2     6     0  [0, 0, 0]
     7  [-1.2500E-01, -1.2500E-01, -1.2500E-01]  [ 1.2500E-01,  0.0000E+00,  0.0000E+00]     2     5     0  [0, 0, 0]
     8  [ 0.0000E+00, -1.2500E-01,  0.0000E+00]  [ 1.2500E-01,  0.0000E+00,  0.0000E+00]     2     8     0  [0, 0, 0]
     9  [ 0.0000E+00,  0.0000E+00,  1.2500E-01]  [ 1.2500E-01,  0.0000E+00,  0.0000E+00]     2     3     0  [0, 0, 0]
    10  [ 2.5000E-01,  0.0000E+00,  0.0000E+00]  [ 2.5000E-01,  0.0000E+00,  0.0000E+00]     3     1     0  [0, 0, 0]
    11  [ 2.5000E-01,  2.5000E-01,  2.5000E-01]  [ 2.5000E-01,  0.0000E+00,  0.0000E+00]     3     6     0  [0, 0, 0]
    12  [ 0.0000E+00,  2.5000E-01,  0.0000E+00]  [ 2.5000E-01,  0.0000E+00,  0.0000E+00]     3     7     0  [0, 0, 0]
    13  [ 0.0000E+00, -2.5000E-01,  0.0000E+00]  [ 2.5000E-01,  0.0000E+00,  0.0000E+00]     3     8     0  [0, 0, 0]
    14  [-2.5000E-01,  0.0000E+00,  0.0000E+00]  [ 2.5000E-01,  0.0000E+00,  0.0000E+00]     3     2     0  [0, 0, 0]
    15  [ 0.0000E+00,  0.0000E+00,  2.5000E-01]  [ 2.5000E-01,  0.0000E+00,  0.0000E+00]     3     3     0  [0, 0, 0]
    16  [ 0.0000E+00,  0.0000E+00, -2.5000E-01]  [ 2.5000E-01,  0.0000E+00,  0.0000E+00]     3     4     0  [0, 0, 0]
    17  [-2.5000E-01, -2.5000E-01, -2.5000E-01]  [ 2.5000E-01,  0.0000E+00,  0.0000E+00]     3     5     0  [0, 0, 0]
    18  [ 3.7500E-01,  0.0000E+00,  0.0000E+00]  [ 3.7500E-01,  0.0000E+00,  0.0000E+00]     4     1     0  [0, 0, 0]
    19  [-3.7500E-01, -3.7500E-01, -3.7500E-01]  [ 3.7500E-01,  0.0000E+00,  0.0000E+00]     4     5     0  [0, 0, 0]
    20  [ 0.0000E+00,  0.0000E+00, -3.7500E-01]  [ 3.7500E-01,  0.0000E+00,  0.0000E+00]     4     4     0  [0, 0, 0]
prtvol = 0, max 20 points are written



 === Kohn-Sham gaps and band edges from IBZ mesh ===
 Direct band gap semiconductor
 Fundamental gap:     9.236 (eV)
   VBM:    -4.618 (eV) at k: [ 0.0000E+00,  0.0000E+00,  0.0000E+00]
   CBM:     4.618 (eV) at k: [ 0.0000E+00,  0.0000E+00,  0.0000E+00]
 Direct gap:         9.236 (eV) at k: [ 0.0000E+00,  0.0000E+00,  0.0000E+00]


 ==== FFT mesh for Green's function ====
  FFT mesh divisions ........................    16   16   16
  Augmented FFT divisions ...................    16   16   16
  FFT algorithm .............................   312
  FFT cache size ............................    16
- FFT uc_batch_size: 4
- FFT sc_batch_size: 4
 ==== Info on the GWR object ====

--- !GWR_params
iteration_state: {dtset: 1, }
gwr_task: G0W0
nband: 480
ntau: 6
ngkpt: [8, 8, 8, ]
ngqpt: [8, 8, 8, ]
chi_algo: supercell
sigma_algo: 'BZ-convolutions'
nkibz: 29
nqibz: 29
inclvkb: 2
q0: [  1.00000000E-05,   2.00000000E-05,   3.00000000E-05, ]
gw_icutcoul: 6
green_mpw: 1363
tchi_mpw: 228
g_ngfft: [16, 16, 16, 16, 16, 16, ]
P gwr_np_kgts: [4, 64, 2, 1, ]
P np_kibz: [
    1, 1, 1, 1, 1, 1, 1, 1, 
    1, 2, 1, 1, 1, 1, 1, 1, 
    2, 1, 1, 1, 1, 1, 1, 2, 
    1, 1, 1, 1, 1, 
]
P np_qibz: [
    1, 1, 1, 1, 1, 1, 1, 1, 
    1, 2, 1, 1, 1, 1, 1, 1, 
    2, 1, 1, 1, 1, 1, 1, 2, 
    1, 1, 1, 1, 1, 
]
ft_max_err_t2w_cos:   1.93390070E-03
ft_max_err_w2t_cos:   1.35362433E-03
ft_max_err_t2w_sin:   4.32515322E-02
cosft_duality_error:   1.30939028E-03
Minimax imaginary tau/omega mesh: !Tabular | # tau, weight(tau), omega, weight(omega)
    1 1.48869E-02   3.96336E-02   1.25915E-01   2.64813E-01
    2 9.28791E-02   1.28001E-01   4.63805E-01   4.51116E-01
    3 3.11958E-01   3.42098E-01   1.15502E+00   1.03245E+00
    4 8.74559E-01   8.54103E-01   2.88931E+00   2.74798E+00
    5 2.23392E+00   2.02345E+00   7.88566E+00   8.42448E+00
    6 5.46613E+00   4.94564E+00   2.58885E+01   3.59732E+01
...


 Computing chi0 head and wings with inclvkb: 2
 Using KS orbitals and KS energies...


 ==== FFT mesh for chi0 head/wings computation ====
  FFT mesh divisions ........................    32   32   32
  Augmented FFT divisions ...................    33   33   32
  FFT algorithm .............................   312
  FFT cache size ............................    16

 Computing diagonal matrix elements of Sigma_x
 Using KS orbitals and KS energies...


 ==== FFT mesh for Sigma_x ====
  FFT mesh divisions ........................    32   32   32
  Augmented FFT divisions ...................    33   33   32
  FFT algorithm .............................   312
  FFT cache size ............................    16


 Building Green's functions from KS orbitals and KS energies...



 Building correlated screening Wc ...

--- !EMACRO_WITHOUT_LOCAL_FIELDS
iteration_state: {dtset: 1, }
'epsilon_{iw, q -> Gamma}(0,0)': !Tabular |
      1.25915267E-01    2.03428793E+00   -9.96253699E-24
      4.63805441E-01    1.70188379E+00   -1.57877997E-24
      1.15501515E+00    1.30828667E+00   -7.70569735E-25
      2.88930588E+00    1.08947492E+00   -1.53907851E-23
      7.88565533E+00    1.01678050E+00   -1.01059411E-25
      2.58884814E+01    1.00177646E+00    9.80483416E-26
...


--- !EMACRO_WITH_LOCAL_FIELDS
iteration_state: {dtset: 1, }
'epsilon_{iw, q -> Gamma}(0,0)': !Tabular |
      1.25915267E-01    5.18932462E-01    0.00000000E+00
      4.63805441E-01    6.12691522E-01    0.00000000E+00
      1.15501515E+00    7.80413389E-01    0.00000000E+00
      2.88930588E+00    9.22357798E-01    0.00000000E+00
      7.88565533E+00    9.83871698E-01    0.00000000E+00
      2.58884814E+01    9.98233259E-01    0.00000000E+00
...



 Building Sigma_c with convolutions in k-space:
================================================================================
 QP results (energies in eV)
 Notations:
     E0: Kohn-Sham energy
     <VxcDFT>: Matrix elements of Vxc[n_val] without non-linear core correction (if any)
     SigX: Matrix elements of Sigma_x
     SigC(E0): Matrix elements of Sigma_c at E0
     Z: Renormalization factor
     E-E0: Difference between the QP and the KS energy.
     E-Eprev: Difference between QP energy at iteration i and i-1
     E: Quasi-particle energy
     Occ(E): Occupancy of QP state
 
 

--- !GWR_SelfEnergy_ee
iteration_state: {dtset: 1, }
kpoint     : [   0.000,    0.000,    0.000, ]
spin       : 1
gwr_scf_iteration: 1
gwr_task   : G0W0
QP_VBM_band: 4
QP_CBM_band: 6
KS_gap     :    9.236
QP_gap     :   13.614
Delta_QP_KS:    4.378
data: !Tabular |
     Band       E0 <VxcDFT>     SigX SigC(E0)        Z     E-E0  E-Eprev        E   Occ(E)
        1  -45.432  -25.583  -39.720    3.744    0.907   -9.387   -9.387  -54.819    2.000
        2  -24.546  -22.783  -37.676    8.290    0.796   -5.172   -5.172  -29.718    2.000
        3   -4.618  -23.080  -30.773    3.919    0.803   -3.028   -3.028   -7.646    2.000
        4   -4.618  -23.080  -30.773    3.919    0.803   -3.028   -3.028   -7.646    2.000
        5   -4.618  -23.080  -30.773    3.919    0.803   -3.028   -3.028   -7.646    2.000
        6    4.618  -11.551   -6.672   -3.334    0.874    1.350    1.350    5.968    0.000
        7   19.551  -10.072   -3.106   -4.324    0.877    2.314    2.314   21.865    0.000
        8   19.551  -10.072   -3.106   -4.324    0.877    2.314    2.314   21.865    0.000
        9   19.551  -10.072   -3.106   -4.324    0.877    2.314    2.314   21.865    0.000
...


--- !GWR_SelfEnergy_ee
iteration_state: {dtset: 1, }
kpoint     : [   0.500,    0.500,    0.000, ]
spin       : 1
gwr_scf_iteration: 1
gwr_task   : G0W0
QP_VBM_band: 4
QP_CBM_band: 6
KS_gap     :   15.957
QP_gap     :   21.322
Delta_QP_KS:    5.365
data: !Tabular |
     Band       E0 <VxcDFT>     SigX SigC(E0)        Z     E-E0  E-Eprev        E   Occ(E)
        1  -45.354  -25.705  -39.816    3.700    0.908   -9.417   -9.417  -54.771    2.000
        2  -23.830  -23.620  -38.486    8.361    0.794   -5.084   -5.084  -28.914    2.000
        3   -7.657  -18.557  -26.747    3.922    0.806   -3.432   -3.432  -11.090    2.000
        4   -5.627  -21.597  -29.530    3.954    0.804   -3.196   -3.196   -8.823    2.000
        5   -5.627  -21.597  -29.530    3.954    0.804   -3.196   -3.196   -8.823    2.000
        6   10.330  -14.807   -8.537   -3.759    0.865    2.169    2.169   12.498    0.000
        7   11.992   -7.626   -2.660   -3.588    0.893    1.229    1.229   13.221    0.000
        8   13.034  -10.676   -4.831   -3.832    0.886    1.781    1.781   14.815    0.000
...


================================================================================
== DATASET  2 ==================================================================
-   mpi_nproc: 512, omp_nthreads: -1 (-1 if OMP is not activated)


--- !DatasetInfo
iteration_state: {dtset: 2, }
dimensions: {natom: 2, nkpt: 29, mband: 480, nsppol: 1, nspinor: 1, nspden: 1, mpw: 1363, }
cutoff_energies: {ecut:  40.0, pawecutdg:  -1.0, }
electrons: {nelect:   1.00000000E+01, charge:   0.00000000E+00, occopt:   1.00000000E+00, tsmear:   1.00000000E-02, }
meta: {optdriver: 6, }
...

 mkfilename: getwfk from: ../outdata_gs_DS2_WFK

 mkfilename: getden from: ../outdata_gs_DS1_DEN

 Exchange-correlation functional for the present dataset will be:
  GGA: Perdew-Burke-Ernzerhof functional - ixc=11
 Citation for XC functional:
  J.P.Perdew, K.Burke, M.Ernzerhof, PRL 77, 3865 (1996)

.Using single precision arithmetic; gwpc =  4

- Reading GS density from: ../outdata_gs_DS1_DEN



--------------------------------------------------------------------------------

 Total charge density [el/Bohr^3]
)     Maximum=    2.7976E+00  at reduced coord.    0.0000    0.0000    0.0000
)     Minimum=    5.7388E-03  at reduced coord.    0.2500    0.2500    0.2500
   Integrated=    1.0000E+01
- Reading GS states from WFK file: ../outdata_gs_DS2_WFK
  Mapping kBZ --> kIBZ
 Legend: bz = TS(ibz) + g0 where isym is the index of the symrec operation S and itim is 1 if TR is used.
        BZ                                       IBZ                                       ibz  isym  itim  g0
     1  [ 0.0000E+00,  0.0000E+00,  0.0000E+00]  [ 0.0000E+00,  0.0000E+00,  0.0000E+00]     1     1     0  [0, 0, 0]
     2  [ 1.2500E-01,  0.0000E+00,  0.0000E+00]  [ 1.2500E-01,  0.0000E+00,  0.0000E+00]     2     1     0  [0, 0, 0]
     3  [-1.2500E-01,  0.0000E+00,  0.0000E+00]  [ 1.2500E-01,  0.0000E+00,  0.0000E+00]     2     2     0  [0, 0, 0]
     4  [ 0.0000E+00,  0.0000E+00, -1.2500E-01]  [ 1.2500E-01,  0.0000E+00,  0.0000E+00]     2     4     0  [0, 0, 0]
     5  [ 0.0000E+00,  1.2500E-01,  0.0000E+00]  [ 1.2500E-01,  0.0000E+00,  0.0000E+00]     2     7     0  [0, 0, 0]
     6  [ 1.2500E-01,  1.2500E-01,  1.2500E-01]  [ 1.2500E-01,  0.0000E+00,  0.0000E+00]     2     6     0  [0, 0, 0]
     7  [-1.2500E-01, -1.2500E-01, -1.2500E-01]  [ 1.2500E-01,  0.0000E+00,  0.0000E+00]     2     5     0  [0, 0, 0]
     8  [ 0.0000E+00, -1.2500E-01,  0.0000E+00]  [ 1.2500E-01,  0.0000E+00,  0.0000E+00]     2     8     0  [0, 0, 0]
     9  [ 0.0000E+00,  0.0000E+00,  1.2500E-01]  [ 1.2500E-01,  0.0000E+00,  0.0000E+00]     2     3     0  [0, 0, 0]
    10  [ 2.5000E-01,  0.0000E+00,  0.0000E+00]  [ 2.5000E-01,  0.0000E+00,  0.0000E+00]     3     1     0  [0, 0, 0]
    11  [ 2.5000E-01,  2.5000E-01,  2.5000E-01]  [ 2.5000E-01,  0.0000E+00,  0.0000E+00]     3     6     0  [0, 0, 0]
    12  [ 0.0000E+00,  2.5000E-01,  0.0000E+00]  [ 2.5000E-01,  0.0000E+00,  0.0000E+00]     3     7     0  [0, 0, 0]
    13  [ 0.0000E+00, -2.5000E-01,  0.0000E+00]  [ 2.5000E-01,  0.0000E+00,  0.0000E+00]     3     8     0  [0, 0, 0]
    14  [-2.5000E-01,  0.0000E+00,  0.0000E+00]  [ 2.5000E-01,  0.0000E+00,  0.0000E+00]     3     2     0  [0, 0, 0]
    15  [ 0.0000E+00,  0.0000E+00,  2.5000E-01]  [ 2.5000E-01,  0.0000E+00,  0.0000E+00]     3     3     0  [0, 0, 0]
    16  [ 0.0000E+00,  0.0000E+00, -2.5000E-01]  [ 2.5000E-01,  0.0000E+00,  0.0000E+00]     3     4     0  [0, 0, 0]
    17  [-2.5000E-01, -2.5000E-01, -2.5000E-01]  [ 2.5000E-01,  0.0000E+00,  0.0000E+00]     3     5     0  [0, 0, 0]
    18  [ 3.7500E-01,  0.0000E+00,  0.0000E+00]  [ 3.7500E-01,  0.0000E+00,  0.0000E+00]     4     1     0  [0, 0, 0]
    19  [-3.7500E-01, -3.7500E-01, -3.7500E-01]  [ 3.7500E-01,  0.0000E+00,  0.0000E+00]     4     5     0  [0, 0, 0]
    20  [ 0.0000E+00,  0.0000E+00, -3.7500E-01]  [ 3.7500E-01,  0.0000E+00,  0.0000E+00]     4     4     0  [0, 0, 0]
prtvol = 0, max 20 points are written


  Mapping qBZ --> qIBZ
 Legend: bz = TS(ibz) + g0 where isym is the index of the symrec operation S and itim is 1 if TR is used.
        BZ                                       IBZ                                       ibz  isym  itim  g0
     1  [ 0.0000E+00,  0.0000E+00,  0.0000E+00]  [ 0.0000E+00,  0.0000E+00,  0.0000E+00]     1     1     0  [0, 0, 0]
     2  [ 1.2500E-01,  0.0000E+00,  0.0000E+00]  [ 1.2500E-01,  0.0000E+00,  0.0000E+00]     2     1     0  [0, 0, 0]
     3  [-1.2500E-01,  0.0000E+00,  0.0000E+00]  [ 1.2500E-01,  0.0000E+00,  0.0000E+00]     2     2     0  [0, 0, 0]
     4  [ 0.0000E+00,  0.0000E+00, -1.2500E-01]  [ 1.2500E-01,  0.0000E+00,  0.0000E+00]     2     4     0  [0, 0, 0]
     5  [ 0.0000E+00,  1.2500E-01,  0.0000E+00]  [ 1.2500E-01,  0.0000E+00,  0.0000E+00]     2     7     0  [0, 0, 0]
     6  [ 1.2500E-01,  1.2500E-01,  1.2500E-01]  [ 1.2500E-01,  0.0000E+00,  0.0000E+00]     2     6     0  [0, 0, 0]
     7  [-1.2500E-01, -1.2500E-01, -1.2500E-01]  [ 1.2500E-01,  0.0000E+00,  0.0000E+00]     2     5     0  [0, 0, 0]
     8  [ 0.0000E+00, -1.2500E-01,  0.0000E+00]  [ 1.2500E-01,  0.0000E+00,  0.0000E+00]     2     8     0  [0, 0, 0]
     9  [ 0.0000E+00,  0.0000E+00,  1.2500E-01]  [ 1.2500E-01,  0.0000E+00,  0.0000E+00]     2     3     0  [0, 0, 0]
    10  [ 2.5000E-01,  0.0000E+00,  0.0000E+00]  [ 2.5000E-01,  0.0000E+00,  0.0000E+00]     3     1     0  [0, 0, 0]
    11  [ 2.5000E-01,  2.5000E-01,  2.5000E-01]  [ 2.5000E-01,  0.0000E+00,  0.0000E+00]     3     6     0  [0, 0, 0]
    12  [ 0.0000E+00,  2.5000E-01,  0.0000E+00]  [ 2.5000E-01,  0.0000E+00,  0.0000E+00]     3     7     0  [0, 0, 0]
    13  [ 0.0000E+00, -2.5000E-01,  0.0000E+00]  [ 2.5000E-01,  0.0000E+00,  0.0000E+00]     3     8     0  [0, 0, 0]
    14  [-2.5000E-01,  0.0000E+00,  0.0000E+00]  [ 2.5000E-01,  0.0000E+00,  0.0000E+00]     3     2     0  [0, 0, 0]
    15  [ 0.0000E+00,  0.0000E+00,  2.5000E-01]  [ 2.5000E-01,  0.0000E+00,  0.0000E+00]     3     3     0  [0, 0, 0]
    16  [ 0.0000E+00,  0.0000E+00, -2.5000E-01]  [ 2.5000E-01,  0.0000E+00,  0.0000E+00]     3     4     0  [0, 0, 0]
    17  [-2.5000E-01, -2.5000E-01, -2.5000E-01]  [ 2.5000E-01,  0.0000E+00,  0.0000E+00]     3     5     0  [0, 0, 0]
    18  [ 3.7500E-01,  0.0000E+00,  0.0000E+00]  [ 3.7500E-01,  0.0000E+00,  0.0000E+00]     4     1     0  [0, 0, 0]
    19  [-3.7500E-01, -3.7500E-01, -3.7500E-01]  [ 3.7500E-01,  0.0000E+00,  0.0000E+00]     4     5     0  [0, 0, 0]
    20  [ 0.0000E+00,  0.0000E+00, -3.7500E-01]  [ 3.7500E-01,  0.0000E+00,  0.0000E+00]     4     4     0  [0, 0, 0]
prtvol = 0, max 20 points are written



 === Kohn-Sham gaps and band edges from IBZ mesh ===
 Direct band gap semiconductor
 Fundamental gap:     9.236 (eV)
   VBM:    -4.618 (eV) at k: [ 0.0000E+00,  0.0000E+00,  0.0000E+00]
   CBM:     4.618 (eV) at k: [ 0.0000E+00,  0.0000E+00,  0.0000E+00]
 Direct gap:         9.236 (eV) at k: [ 0.0000E+00,  0.0000E+00,  0.0000E+00]


 ==== FFT mesh for Green's function ====
  FFT mesh divisions ........................    16   16   16
  Augmented FFT divisions ...................    16   16   16
  FFT algorithm .............................   312
  FFT cache size ............................    16
- FFT uc_batch_size: 4
- FFT sc_batch_size: 4
 ==== Info on the GWR object ====

--- !GWR_params
iteration_state: {dtset: 2, }
gwr_task: G0W0
nband: 480
ntau: 8
ngkpt: [8, 8, 8, ]
ngqpt: [8, 8, 8, ]
chi_algo: supercell
sigma_algo: 'BZ-convolutions'
nkibz: 29
nqibz: 29
inclvkb: 2
q0: [  1.00000000E-05,   2.00000000E-05,   3.00000000E-05, ]
gw_icutcoul: 6
green_mpw: 1363
tchi_mpw: 228
g_ngfft: [16, 16, 16, 16, 16, 16, ]
P gwr_np_kgts: [4, 64, 2, 1, ]
P np_kibz: [
    1, 1, 1, 1, 1, 1, 1, 1, 
    1, 2, 1, 1, 1, 1, 1, 1, 
    2, 1, 1, 1, 1, 1, 1, 2, 
    1, 1, 1, 1, 1, 
]
P np_qibz: [
    1, 1, 1, 1, 1, 1, 1, 1, 
    1, 2, 1, 1, 1, 1, 1, 1, 
    2, 1, 1, 1, 1, 1, 1, 2, 
    1, 1, 1, 1, 1, 
]
ft_max_err_t2w_cos:   4.90968861E-04
ft_max_err_w2t_cos:   1.17979969E-04
ft_max_err_t2w_sin:   9.21843351E-03
cosft_duality_error:   2.71118263E-03
Minimax imaginary tau/omega mesh: !Tabular | # tau, weight(tau), omega, weight(omega)
    1 1.07988E-02   2.82165E-02   1.00976E-01   2.08527E-01
    2 6.17253E-02   7.73227E-02   3.44741E-01   2.96174E-01
    3 1.78110E-01   1.65213E-01   7.39456E-01   5.24962E-01
    4 4.21213E-01   3.41358E-01   1.48779E+00   1.03947E+00
    5 9.17638E-01   6.90019E-01   3.02736E+00   2.19761E+00
    6 1.90780E+00   1.36297E+00   6.39514E+00   4.94563E+00
    7 3.85246E+00   2.67832E+00   1.43973E+01   1.24159E+01
    8 7.79110E+00   5.69798E+00   3.86510E+01   4.68841E+01
...


 Computing chi0 head and wings with inclvkb: 2
 Using KS orbitals and KS energies...


 ==== FFT mesh for chi0 head/wings computation ====
  FFT mesh divisions ........................    32   32   32
  Augmented FFT divisions ...................    33   33   32
  FFT algorithm .............................   312
  FFT cache size ............................    16

 Computing diagonal matrix elements of Sigma_x
 Using KS orbitals and KS energies...


 ==== FFT mesh for Sigma_x ====
  FFT mesh divisions ........................    32   32   32
  Augmented FFT divisions ...................    33   33   32
  FFT algorithm .............................   312
  FFT cache size ............................    16


 Building Green's functions from KS orbitals and KS energies...



 Building correlated screening Wc ...

--- !EMACRO_WITHOUT_LOCAL_FIELDS
iteration_state: {dtset: 2, }
'epsilon_{iw, q -> Gamma}(0,0)': !Tabular |
      1.00975903E-01    2.05096078E+00   -8.34452569E-24
      3.44740875E-01    1.82067919E+00   -5.46476292E-24
      7.39455807E-01    1.49073839E+00    3.31872489E-23
      1.48779273E+00    1.22648025E+00   -1.07786988E-23
      3.02736157E+00    1.08332849E+00   -1.53593743E-23
      6.39514101E+00    1.02432656E+00   -2.91283063E-24
      1.43972916E+01    1.00550985E+00    2.97777366E-25
      3.86509903E+01    1.00080752E+00   -8.00512751E-26
...


--- !EMACRO_WITH_LOCAL_FIELDS
iteration_state: {dtset: 2, }
'epsilon_{iw, q -> Gamma}(0,0)': !Tabular |
      1.00975903E-01    5.14997244E-01    0.00000000E+00
      3.44740875E-01    5.75460970E-01    0.00000000E+00
      7.39455807E-01    6.92428529E-01    0.00000000E+00
      1.48779273E+00    8.27759504E-01    0.00000000E+00
      3.02736157E+00    9.27175343E-01    0.00000000E+00
      6.39514101E+00    9.76936162E-01    0.00000000E+00
      1.43972916E+01    9.94574904E-01    0.00000000E+00
      3.86509903E+01    9.99194682E-01    0.00000000E+00
...



 Building Sigma_c with convolutions in k-space:
================================================================================
 QP results (energies in eV)
 Notations:
     E0: Kohn-Sham energy
     <VxcDFT>: Matrix elements of Vxc[n_val] without non-linear core correction (if any)
     SigX: Matrix elements of Sigma_x
     SigC(E0): Matrix elements of Sigma_c at E0
     Z: Renormalization factor
     E-E0: Difference between the QP and the KS energy.
     E-Eprev: Difference between QP energy at iteration i and i-1
     E: Quasi-particle energy
     Occ(E): Occupancy of QP state
 
 

--- !GWR_SelfEnergy_ee
iteration_state: {dtset: 2, }
kpoint     : [   0.000,    0.000,    0.000, ]
spin       : 1
gwr_scf_iteration: 1
gwr_task   : G0W0
QP_VBM_band: 4
QP_CBM_band: 6
KS_gap     :    9.236
QP_gap     :   13.795
Delta_QP_KS:    4.560
data: !Tabular |
     Band       E0 <VxcDFT>     SigX SigC(E0)        Z     E-E0  E-Eprev        E   Occ(E)
        1  -45.432  -25.583  -39.720    3.531    0.905   -9.592   -9.592  -55.024    2.000
        2  -24.546  -22.783  -37.676    8.770    0.755   -4.550   -4.550  -29.096    2.000
        3   -4.618  -23.080  -30.773    3.815    0.805   -3.123   -3.123   -7.741    2.000
        4   -4.618  -23.080  -30.773    3.815    0.805   -3.123   -3.123   -7.741    2.000
        5   -4.618  -23.080  -30.773    3.815    0.805   -3.123   -3.123   -7.741    2.000
        6    4.618  -11.551   -6.672   -3.259    0.887    1.437    1.437    6.055    0.000
        7   19.551  -10.072   -3.106   -4.337    0.876    2.299    2.299   21.850    0.000
        8   19.551  -10.072   -3.106   -4.337    0.876    2.299    2.299   21.850    0.000
        9   19.551  -10.072   -3.106   -4.337    0.876    2.299    2.299   21.850    0.000
...


--- !GWR_SelfEnergy_ee
iteration_state: {dtset: 2, }
kpoint     : [   0.500,    0.500,    0.000, ]
spin       : 1
gwr_scf_iteration: 1
gwr_task   : G0W0
QP_VBM_band: 4
QP_CBM_band: 6
KS_gap     :   15.957
QP_gap     :   21.424
Delta_QP_KS:    5.467
data: !Tabular |
     Band       E0 <VxcDFT>     SigX SigC(E0)        Z     E-E0  E-Eprev        E   Occ(E)
        1  -45.354  -25.705  -39.816    3.494    0.906   -9.614   -9.614  -54.968    2.000
        2  -23.830  -23.620  -38.486    8.806    0.755   -4.507   -4.507  -28.337    2.000
        3   -7.657  -18.557  -26.747    3.823    0.797   -3.479   -3.479  -11.137    2.000
        4   -5.627  -21.597  -29.530    3.849    0.802   -3.276   -3.276   -8.903    2.000
        5   -5.627  -21.597  -29.530    3.849    0.802   -3.276   -3.276   -8.903    2.000
        6   10.330  -14.807   -8.537   -3.708    0.855    2.191    2.191   12.521    0.000
        7   11.992   -7.626   -2.660   -3.571    0.884    1.234    1.234   13.226    0.000
        8   13.034  -10.676   -4.831   -3.821    0.875    1.770    1.770   14.804    0.000
...


================================================================================
== DATASET  3 ==================================================================
-   mpi_nproc: 512, omp_nthreads: -1 (-1 if OMP is not activated)


--- !DatasetInfo
iteration_state: {dtset: 3, }
dimensions: {natom: 2, nkpt: 29, mband: 480, nsppol: 1, nspinor: 1, nspden: 1, mpw: 1363, }
cutoff_energies: {ecut:  40.0, pawecutdg:  -1.0, }
electrons: {nelect:   1.00000000E+01, charge:   0.00000000E+00, occopt:   1.00000000E+00, tsmear:   1.00000000E-02, }
meta: {optdriver: 6, }
...

 mkfilename: getwfk from: ../outdata_gs_DS2_WFK

 mkfilename: getden from: ../outdata_gs_DS1_DEN

 Exchange-correlation functional for the present dataset will be:
  GGA: Perdew-Burke-Ernzerhof functional - ixc=11
 Citation for XC functional:
  J.P.Perdew, K.Burke, M.Ernzerhof, PRL 77, 3865 (1996)

.Using single precision arithmetic; gwpc =  4

- Reading GS density from: ../outdata_gs_DS1_DEN



--------------------------------------------------------------------------------

 Total charge density [el/Bohr^3]
)     Maximum=    2.7976E+00  at reduced coord.    0.0000    0.0000    0.0000
)     Minimum=    5.7388E-03  at reduced coord.    0.2500    0.2500    0.2500
   Integrated=    1.0000E+01
- Reading GS states from WFK file: ../outdata_gs_DS2_WFK
  Mapping kBZ --> kIBZ
 Legend: bz = TS(ibz) + g0 where isym is the index of the symrec operation S and itim is 1 if TR is used.
        BZ                                       IBZ                                       ibz  isym  itim  g0
     1  [ 0.0000E+00,  0.0000E+00,  0.0000E+00]  [ 0.0000E+00,  0.0000E+00,  0.0000E+00]     1     1     0  [0, 0, 0]
     2  [ 1.2500E-01,  0.0000E+00,  0.0000E+00]  [ 1.2500E-01,  0.0000E+00,  0.0000E+00]     2     1     0  [0, 0, 0]
     3  [-1.2500E-01,  0.0000E+00,  0.0000E+00]  [ 1.2500E-01,  0.0000E+00,  0.0000E+00]     2     2     0  [0, 0, 0]
     4  [ 0.0000E+00,  0.0000E+00, -1.2500E-01]  [ 1.2500E-01,  0.0000E+00,  0.0000E+00]     2     4     0  [0, 0, 0]
     5  [ 0.0000E+00,  1.2500E-01,  0.0000E+00]  [ 1.2500E-01,  0.0000E+00,  0.0000E+00]     2     7     0  [0, 0, 0]
     6  [ 1.2500E-01,  1.2500E-01,  1.2500E-01]  [ 1.2500E-01,  0.0000E+00,  0.0000E+00]     2     6     0  [0, 0, 0]
     7  [-1.2500E-01, -1.2500E-01, -1.2500E-01]  [ 1.2500E-01,  0.0000E+00,  0.0000E+00]     2     5     0  [0, 0, 0]
     8  [ 0.0000E+00, -1.2500E-01,  0.0000E+00]  [ 1.2500E-01,  0.0000E+00,  0.0000E+00]     2     8     0  [0, 0, 0]
     9  [ 0.0000E+00,  0.0000E+00,  1.2500E-01]  [ 1.2500E-01,  0.0000E+00,  0.0000E+00]     2     3     0  [0, 0, 0]
    10  [ 2.5000E-01,  0.0000E+00,  0.0000E+00]  [ 2.5000E-01,  0.0000E+00,  0.0000E+00]     3     1     0  [0, 0, 0]
    11  [ 2.5000E-01,  2.5000E-01,  2.5000E-01]  [ 2.5000E-01,  0.0000E+00,  0.0000E+00]     3     6     0  [0, 0, 0]
    12  [ 0.0000E+00,  2.5000E-01,  0.0000E+00]  [ 2.5000E-01,  0.0000E+00,  0.0000E+00]     3     7     0  [0, 0, 0]
    13  [ 0.0000E+00, -2.5000E-01,  0.0000E+00]  [ 2.5000E-01,  0.0000E+00,  0.0000E+00]     3     8     0  [0, 0, 0]
    14  [-2.5000E-01,  0.0000E+00,  0.0000E+00]  [ 2.5000E-01,  0.0000E+00,  0.0000E+00]     3     2     0  [0, 0, 0]
    15  [ 0.0000E+00,  0.0000E+00,  2.5000E-01]  [ 2.5000E-01,  0.0000E+00,  0.0000E+00]     3     3     0  [0, 0, 0]
    16  [ 0.0000E+00,  0.0000E+00, -2.5000E-01]  [ 2.5000E-01,  0.0000E+00,  0.0000E+00]     3     4     0  [0, 0, 0]
    17  [-2.5000E-01, -2.5000E-01, -2.5000E-01]  [ 2.5000E-01,  0.0000E+00,  0.0000E+00]     3     5     0  [0, 0, 0]
    18  [ 3.7500E-01,  0.0000E+00,  0.0000E+00]  [ 3.7500E-01,  0.0000E+00,  0.0000E+00]     4     1     0  [0, 0, 0]
    19  [-3.7500E-01, -3.7500E-01, -3.7500E-01]  [ 3.7500E-01,  0.0000E+00,  0.0000E+00]     4     5     0  [0, 0, 0]
    20  [ 0.0000E+00,  0.0000E+00, -3.7500E-01]  [ 3.7500E-01,  0.0000E+00,  0.0000E+00]     4     4     0  [0, 0, 0]
prtvol = 0, max 20 points are written


  Mapping qBZ --> qIBZ
 Legend: bz = TS(ibz) + g0 where isym is the index of the symrec operation S and itim is 1 if TR is used.
        BZ                                       IBZ                                       ibz  isym  itim  g0
     1  [ 0.0000E+00,  0.0000E+00,  0.0000E+00]  [ 0.0000E+00,  0.0000E+00,  0.0000E+00]     1     1     0  [0, 0, 0]
     2  [ 1.2500E-01,  0.0000E+00,  0.0000E+00]  [ 1.2500E-01,  0.0000E+00,  0.0000E+00]     2     1     0  [0, 0, 0]
     3  [-1.2500E-01,  0.0000E+00,  0.0000E+00]  [ 1.2500E-01,  0.0000E+00,  0.0000E+00]     2     2     0  [0, 0, 0]
     4  [ 0.0000E+00,  0.0000E+00, -1.2500E-01]  [ 1.2500E-01,  0.0000E+00,  0.0000E+00]     2     4     0  [0, 0, 0]
     5  [ 0.0000E+00,  1.2500E-01,  0.0000E+00]  [ 1.2500E-01,  0.0000E+00,  0.0000E+00]     2     7     0  [0, 0, 0]
     6  [ 1.2500E-01,  1.2500E-01,  1.2500E-01]  [ 1.2500E-01,  0.0000E+00,  0.0000E+00]     2     6     0  [0, 0, 0]
     7  [-1.2500E-01, -1.2500E-01, -1.2500E-01]  [ 1.2500E-01,  0.0000E+00,  0.0000E+00]     2     5     0  [0, 0, 0]
     8  [ 0.0000E+00, -1.2500E-01,  0.0000E+00]  [ 1.2500E-01,  0.0000E+00,  0.0000E+00]     2     8     0  [0, 0, 0]
     9  [ 0.0000E+00,  0.0000E+00,  1.2500E-01]  [ 1.2500E-01,  0.0000E+00,  0.0000E+00]     2     3     0  [0, 0, 0]
    10  [ 2.5000E-01,  0.0000E+00,  0.0000E+00]  [ 2.5000E-01,  0.0000E+00,  0.0000E+00]     3     1     0  [0, 0, 0]
    11  [ 2.5000E-01,  2.5000E-01,  2.5000E-01]  [ 2.5000E-01,  0.0000E+00,  0.0000E+00]     3     6     0  [0, 0, 0]
    12  [ 0.0000E+00,  2.5000E-01,  0.0000E+00]  [ 2.5000E-01,  0.0000E+00,  0.0000E+00]     3     7     0  [0, 0, 0]
    13  [ 0.0000E+00, -2.5000E-01,  0.0000E+00]  [ 2.5000E-01,  0.0000E+00,  0.0000E+00]     3     8     0  [0, 0, 0]
    14  [-2.5000E-01,  0.0000E+00,  0.0000E+00]  [ 2.5000E-01,  0.0000E+00,  0.0000E+00]     3     2     0  [0, 0, 0]
    15  [ 0.0000E+00,  0.0000E+00,  2.5000E-01]  [ 2.5000E-01,  0.0000E+00,  0.0000E+00]     3     3     0  [0, 0, 0]
    16  [ 0.0000E+00,  0.0000E+00, -2.5000E-01]  [ 2.5000E-01,  0.0000E+00,  0.0000E+00]     3     4     0  [0, 0, 0]
    17  [-2.5000E-01, -2.5000E-01, -2.5000E-01]  [ 2.5000E-01,  0.0000E+00,  0.0000E+00]     3     5     0  [0, 0, 0]
    18  [ 3.7500E-01,  0.0000E+00,  0.0000E+00]  [ 3.7500E-01,  0.0000E+00,  0.0000E+00]     4     1     0  [0, 0, 0]
    19  [-3.7500E-01, -3.7500E-01, -3.7500E-01]  [ 3.7500E-01,  0.0000E+00,  0.0000E+00]     4     5     0  [0, 0, 0]
    20  [ 0.0000E+00,  0.0000E+00, -3.7500E-01]  [ 3.7500E-01,  0.0000E+00,  0.0000E+00]     4     4     0  [0, 0, 0]
prtvol = 0, max 20 points are written



 === Kohn-Sham gaps and band edges from IBZ mesh ===
 Direct band gap semiconductor
 Fundamental gap:     9.236 (eV)
   VBM:    -4.618 (eV) at k: [ 0.0000E+00,  0.0000E+00,  0.0000E+00]
   CBM:     4.618 (eV) at k: [ 0.0000E+00,  0.0000E+00,  0.0000E+00]
 Direct gap:         9.236 (eV) at k: [ 0.0000E+00,  0.0000E+00,  0.0000E+00]


 ==== FFT mesh for Green's function ====
  FFT mesh divisions ........................    16   16   16
  Augmented FFT divisions ...................    16   16   16
  FFT algorithm .............................   312
  FFT cache size ............................    16
- FFT uc_batch_size: 4
- FFT sc_batch_size: 4
 ==== Info on the GWR object ====

--- !GWR_params
iteration_state: {dtset: 3, }
gwr_task: G0W0
nband: 480
ntau: 10
ngkpt: [8, 8, 8, ]
ngqpt: [8, 8, 8, ]
chi_algo: supercell
sigma_algo: 'BZ-convolutions'
nkibz: 29
nqibz: 29
inclvkb: 2
q0: [  1.00000000E-05,   2.00000000E-05,   3.00000000E-05, ]
gw_icutcoul: 6
green_mpw: 1363
tchi_mpw: 228
g_ngfft: [16, 16, 16, 16, 16, 16, ]
P gwr_np_kgts: [4, 64, 2, 1, ]
P np_kibz: [
    1, 1, 1, 1, 1, 1, 1, 1, 
    1, 2, 1, 1, 1, 1, 1, 1, 
    2, 1, 1, 1, 1, 1, 1, 2, 
    1, 1, 1, 1, 1, 
]
P np_qibz: [
    1, 1, 1, 1, 1, 1, 1, 1, 
    1, 2, 1, 1, 1, 1, 1, 1, 
    2, 1, 1, 1, 1, 1, 1, 2, 
    1, 1, 1, 1, 1, 
]
ft_max_err_t2w_cos:   5.33204473E-05
ft_max_err_w2t_cos:   3.95261541E-05
ft_max_err_t2w_sin:   1.89617950E-03
cosft_duality_error:   1.76204217E-03
Minimax imaginary tau/omega mesh: !Tabular | # tau, weight(tau), omega, weight(omega)
    1 8.49956E-03   2.20485E-02   8.36575E-02   1.71002E-01
    2 4.69719E-02   5.64915E-02   2.73935E-01   2.18341E-01
    3 1.26671E-01   1.06792E-01   5.41856E-01   3.31017E-01
    4 2.71944E-01   1.91643E-01   9.71620E-01   5.52049E-01
    5 5.31441E-01   3.41482E-01   1.71042E+00   9.69279E-01
    6 9.92082E-01   6.03797E-01   3.03310E+00   1.76138E+00
    7 1.80180E+00   1.05624E+00   5.48041E+00   3.31066E+00
    8 3.21251E+00   1.83689E+00   1.02026E+01   6.55943E+00
    9 5.67902E+00   3.24403E+00   2.01644E+01   1.48513E+01
    10 1.02212E+01   6.34197E+00   4.85620E+01   5.48630E+01
...


 Computing chi0 head and wings with inclvkb: 2
 Using KS orbitals and KS energies...


 ==== FFT mesh for chi0 head/wings computation ====
  FFT mesh divisions ........................    32   32   32
  Augmented FFT divisions ...................    33   33   32
  FFT algorithm .............................   312
  FFT cache size ............................    16

 Computing diagonal matrix elements of Sigma_x
 Using KS orbitals and KS energies...


 ==== FFT mesh for Sigma_x ====
  FFT mesh divisions ........................    32   32   32
  Augmented FFT divisions ...................    33   33   32
  FFT algorithm .............................   312
  FFT cache size ............................    16


 Building Green's functions from KS orbitals and KS energies...



 Building correlated screening Wc ...

--- !EMACRO_WITHOUT_LOCAL_FIELDS
iteration_state: {dtset: 3, }
'epsilon_{iw, q -> Gamma}(0,0)': !Tabular |
      8.36574625E-02    2.06073189E+00    7.44327498E-24
      2.73934930E-01    1.89548409E+00   -2.19120679E-23
      5.41856264E-01    1.63266778E+00   -3.43662994E-23
      9.71619983E-01    1.37396038E+00    6.94493567E-25
      1.71041655E+00    1.18889511E+00    1.27536318E-23
      3.03309602E+00    1.08308709E+00   -4.02481567E-24
      5.48040692E+00    1.03177071E+00   -1.24528389E-24
      1.02026061E+01    1.01049817E+00    6.28655828E-25
      2.01644476E+01    1.00288868E+00   -1.02796890E-25
      4.85620128E+01    1.00051367E+00   -5.19275587E-27
...


--- !EMACRO_WITH_LOCAL_FIELDS
iteration_state: {dtset: 3, }
'epsilon_{iw, q -> Gamma}(0,0)': !Tabular |
      8.36574625E-02    5.12720168E-01    0.00000000E+00
      2.73934930E-01    5.54280519E-01    0.00000000E+00
      5.41856264E-01    6.36714101E-01    0.00000000E+00
      9.71619983E-01    7.46239483E-01    0.00000000E+00
      1.71041655E+00    8.51577103E-01    0.00000000E+00
      3.03309602E+00    9.27365541E-01    0.00000000E+00
      5.48040692E+00    9.70247090E-01    0.00000000E+00
      1.02026061E+01    9.89780724E-01    0.00000000E+00
      2.01644476E+01    9.97136354E-01    0.00000000E+00
      4.85620128E+01    9.99487221E-01    0.00000000E+00
...



 Building Sigma_c with convolutions in k-space:
================================================================================
 QP results (energies in eV)
 Notations:
     E0: Kohn-Sham energy
     <VxcDFT>: Matrix elements of Vxc[n_val] without non-linear core correction (if any)
     SigX: Matrix elements of Sigma_x
     SigC(E0): Matrix elements of Sigma_c at E0
     Z: Renormalization factor
     E-E0: Difference between the QP and the KS energy.
     E-Eprev: Difference between QP energy at iteration i and i-1
     E: Quasi-particle energy
     Occ(E): Occupancy of QP state
 
 

--- !GWR_SelfEnergy_ee
iteration_state: {dtset: 3, }
kpoint     : [   0.000,    0.000,    0.000, ]
spin       : 1
gwr_scf_iteration: 1
gwr_task   : G0W0
QP_VBM_band: 4
QP_CBM_band: 6
KS_gap     :    9.236
QP_gap     :   13.797
Delta_QP_KS:    4.561
data: !Tabular |
     Band       E0 <VxcDFT>     SigX SigC(E0)        Z     E-E0  E-Eprev        E   Occ(E)
        1  -45.432  -25.583  -39.720    3.680    0.892   -9.317   -9.317  -54.749    2.000
        2  -24.546  -22.783  -37.676    9.067    0.730   -4.166   -4.166  -28.712    2.000
        3   -4.618  -23.080  -30.773    3.811    0.809   -3.140   -3.140   -7.758    2.000
        4   -4.618  -23.080  -30.773    3.811    0.809   -3.140   -3.140   -7.758    2.000
        5   -4.618  -23.080  -30.773    3.811    0.809   -3.140   -3.140   -7.758    2.000
        6    4.618  -11.551   -6.672   -3.268    0.883    1.422    1.422    6.039    0.000
        7   19.551  -10.072   -3.106   -4.362    0.880    2.279    2.279   21.829    0.000
        8   19.551  -10.072   -3.106   -4.362    0.880    2.279    2.279   21.829    0.000
        9   19.551  -10.072   -3.106   -4.362    0.880    2.279    2.279   21.829    0.000
...


--- !GWR_SelfEnergy_ee
iteration_state: {dtset: 3, }
kpoint     : [   0.500,    0.500,    0.000, ]
spin       : 1
gwr_scf_iteration: 1
gwr_task   : G0W0
QP_VBM_band: 4
QP_CBM_band: 6
KS_gap     :   15.957
QP_gap     :   21.428
Delta_QP_KS:    5.471
data: !Tabular |
     Band       E0 <VxcDFT>     SigX SigC(E0)        Z     E-E0  E-Eprev        E   Occ(E)
        1  -45.354  -25.705  -39.816    3.653    0.892   -9.319   -9.319  -54.673    2.000
        2  -23.830  -23.620  -38.486    9.079    0.730   -4.153   -4.153  -27.982    2.000
        3   -7.657  -18.557  -26.747    3.819    0.799   -3.493   -3.493  -11.150    2.000
        4   -5.627  -21.597  -29.530    3.845    0.805   -3.291   -3.291   -8.918    2.000
        5   -5.627  -21.597  -29.530    3.845    0.805   -3.291   -3.291   -8.918    2.000
        6   10.330  -14.807   -8.537   -3.715    0.853    2.180    2.180   12.510    0.000
        7   11.992   -7.626   -2.660   -3.568    0.882    1.233    1.233   13.225    0.000
        8   13.034  -10.676   -4.831   -3.833    0.884    1.775    1.775   14.809    0.000
...


================================================================================
== DATASET  4 ==================================================================
-   mpi_nproc: 512, omp_nthreads: -1 (-1 if OMP is not activated)


--- !DatasetInfo
iteration_state: {dtset: 4, }
dimensions: {natom: 2, nkpt: 29, mband: 480, nsppol: 1, nspinor: 1, nspden: 1, mpw: 1363, }
cutoff_energies: {ecut:  40.0, pawecutdg:  -1.0, }
electrons: {nelect:   1.00000000E+01, charge:   0.00000000E+00, occopt:   1.00000000E+00, tsmear:   1.00000000E-02, }
meta: {optdriver: 6, }
...

 mkfilename: getwfk from: ../outdata_gs_DS2_WFK

 mkfilename: getden from: ../outdata_gs_DS1_DEN

 Exchange-correlation functional for the present dataset will be:
  GGA: Perdew-Burke-Ernzerhof functional - ixc=11
 Citation for XC functional:
  J.P.Perdew, K.Burke, M.Ernzerhof, PRL 77, 3865 (1996)

.Using single precision arithmetic; gwpc =  4

- Reading GS density from: ../outdata_gs_DS1_DEN



--------------------------------------------------------------------------------

 Total charge density [el/Bohr^3]
)     Maximum=    2.7976E+00  at reduced coord.    0.0000    0.0000    0.0000
)     Minimum=    5.7388E-03  at reduced coord.    0.2500    0.2500    0.2500
   Integrated=    1.0000E+01
- Reading GS states from WFK file: ../outdata_gs_DS2_WFK
  Mapping kBZ --> kIBZ
 Legend: bz = TS(ibz) + g0 where isym is the index of the symrec operation S and itim is 1 if TR is used.
        BZ                                       IBZ                                       ibz  isym  itim  g0
     1  [ 0.0000E+00,  0.0000E+00,  0.0000E+00]  [ 0.0000E+00,  0.0000E+00,  0.0000E+00]     1     1     0  [0, 0, 0]
     2  [ 1.2500E-01,  0.0000E+00,  0.0000E+00]  [ 1.2500E-01,  0.0000E+00,  0.0000E+00]     2     1     0  [0, 0, 0]
     3  [-1.2500E-01,  0.0000E+00,  0.0000E+00]  [ 1.2500E-01,  0.0000E+00,  0.0000E+00]     2     2     0  [0, 0, 0]
     4  [ 0.0000E+00,  0.0000E+00, -1.2500E-01]  [ 1.2500E-01,  0.0000E+00,  0.0000E+00]     2     4     0  [0, 0, 0]
     5  [ 0.0000E+00,  1.2500E-01,  0.0000E+00]  [ 1.2500E-01,  0.0000E+00,  0.0000E+00]     2     7     0  [0, 0, 0]
     6  [ 1.2500E-01,  1.2500E-01,  1.2500E-01]  [ 1.2500E-01,  0.0000E+00,  0.0000E+00]     2     6     0  [0, 0, 0]
     7  [-1.2500E-01, -1.2500E-01, -1.2500E-01]  [ 1.2500E-01,  0.0000E+00,  0.0000E+00]     2     5     0  [0, 0, 0]
     8  [ 0.0000E+00, -1.2500E-01,  0.0000E+00]  [ 1.2500E-01,  0.0000E+00,  0.0000E+00]     2     8     0  [0, 0, 0]
     9  [ 0.0000E+00,  0.0000E+00,  1.2500E-01]  [ 1.2500E-01,  0.0000E+00,  0.0000E+00]     2     3     0  [0, 0, 0]
    10  [ 2.5000E-01,  0.0000E+00,  0.0000E+00]  [ 2.5000E-01,  0.0000E+00,  0.0000E+00]     3     1     0  [0, 0, 0]
    11  [ 2.5000E-01,  2.5000E-01,  2.5000E-01]  [ 2.5000E-01,  0.0000E+00,  0.0000E+00]     3     6     0  [0, 0, 0]
    12  [ 0.0000E+00,  2.5000E-01,  0.0000E+00]  [ 2.5000E-01,  0.0000E+00,  0.0000E+00]     3     7     0  [0, 0, 0]
    13  [ 0.0000E+00, -2.5000E-01,  0.0000E+00]  [ 2.5000E-01,  0.0000E+00,  0.0000E+00]     3     8     0  [0, 0, 0]
    14  [-2.5000E-01,  0.0000E+00,  0.0000E+00]  [ 2.5000E-01,  0.0000E+00,  0.0000E+00]     3     2     0  [0, 0, 0]
    15  [ 0.0000E+00,  0.0000E+00,  2.5000E-01]  [ 2.5000E-01,  0.0000E+00,  0.0000E+00]     3     3     0  [0, 0, 0]
    16  [ 0.0000E+00,  0.0000E+00, -2.5000E-01]  [ 2.5000E-01,  0.0000E+00,  0.0000E+00]     3     4     0  [0, 0, 0]
    17  [-2.5000E-01, -2.5000E-01, -2.5000E-01]  [ 2.5000E-01,  0.0000E+00,  0.0000E+00]     3     5     0  [0, 0, 0]
    18  [ 3.7500E-01,  0.0000E+00,  0.0000E+00]  [ 3.7500E-01,  0.0000E+00,  0.0000E+00]     4     1     0  [0, 0, 0]
    19  [-3.7500E-01, -3.7500E-01, -3.7500E-01]  [ 3.7500E-01,  0.0000E+00,  0.0000E+00]     4     5     0  [0, 0, 0]
    20  [ 0.0000E+00,  0.0000E+00, -3.7500E-01]  [ 3.7500E-01,  0.0000E+00,  0.0000E+00]     4     4     0  [0, 0, 0]
prtvol = 0, max 20 points are written


  Mapping qBZ --> qIBZ
 Legend: bz = TS(ibz) + g0 where isym is the index of the symrec operation S and itim is 1 if TR is used.
        BZ                                       IBZ                                       ibz  isym  itim  g0
     1  [ 0.0000E+00,  0.0000E+00,  0.0000E+00]  [ 0.0000E+00,  0.0000E+00,  0.0000E+00]     1     1     0  [0, 0, 0]
     2  [ 1.2500E-01,  0.0000E+00,  0.0000E+00]  [ 1.2500E-01,  0.0000E+00,  0.0000E+00]     2     1     0  [0, 0, 0]
     3  [-1.2500E-01,  0.0000E+00,  0.0000E+00]  [ 1.2500E-01,  0.0000E+00,  0.0000E+00]     2     2     0  [0, 0, 0]
     4  [ 0.0000E+00,  0.0000E+00, -1.2500E-01]  [ 1.2500E-01,  0.0000E+00,  0.0000E+00]     2     4     0  [0, 0, 0]
     5  [ 0.0000E+00,  1.2500E-01,  0.0000E+00]  [ 1.2500E-01,  0.0000E+00,  0.0000E+00]     2     7     0  [0, 0, 0]
     6  [ 1.2500E-01,  1.2500E-01,  1.2500E-01]  [ 1.2500E-01,  0.0000E+00,  0.0000E+00]     2     6     0  [0, 0, 0]
     7  [-1.2500E-01, -1.2500E-01, -1.2500E-01]  [ 1.2500E-01,  0.0000E+00,  0.0000E+00]     2     5     0  [0, 0, 0]
     8  [ 0.0000E+00, -1.2500E-01,  0.0000E+00]  [ 1.2500E-01,  0.0000E+00,  0.0000E+00]     2     8     0  [0, 0, 0]
     9  [ 0.0000E+00,  0.0000E+00,  1.2500E-01]  [ 1.2500E-01,  0.0000E+00,  0.0000E+00]     2     3     0  [0, 0, 0]
    10  [ 2.5000E-01,  0.0000E+00,  0.0000E+00]  [ 2.5000E-01,  0.0000E+00,  0.0000E+00]     3     1     0  [0, 0, 0]
    11  [ 2.5000E-01,  2.5000E-01,  2.5000E-01]  [ 2.5000E-01,  0.0000E+00,  0.0000E+00]     3     6     0  [0, 0, 0]
    12  [ 0.0000E+00,  2.5000E-01,  0.0000E+00]  [ 2.5000E-01,  0.0000E+00,  0.0000E+00]     3     7     0  [0, 0, 0]
    13  [ 0.0000E+00, -2.5000E-01,  0.0000E+00]  [ 2.5000E-01,  0.0000E+00,  0.0000E+00]     3     8     0  [0, 0, 0]
    14  [-2.5000E-01,  0.0000E+00,  0.0000E+00]  [ 2.5000E-01,  0.0000E+00,  0.0000E+00]     3     2     0  [0, 0, 0]
    15  [ 0.0000E+00,  0.0000E+00,  2.5000E-01]  [ 2.5000E-01,  0.0000E+00,  0.0000E+00]     3     3     0  [0, 0, 0]
    16  [ 0.0000E+00,  0.0000E+00, -2.5000E-01]  [ 2.5000E-01,  0.0000E+00,  0.0000E+00]     3     4     0  [0, 0, 0]
    17  [-2.5000E-01, -2.5000E-01, -2.5000E-01]  [ 2.5000E-01,  0.0000E+00,  0.0000E+00]     3     5     0  [0, 0, 0]
    18  [ 3.7500E-01,  0.0000E+00,  0.0000E+00]  [ 3.7500E-01,  0.0000E+00,  0.0000E+00]     4     1     0  [0, 0, 0]
    19  [-3.7500E-01, -3.7500E-01, -3.7500E-01]  [ 3.7500E-01,  0.0000E+00,  0.0000E+00]     4     5     0  [0, 0, 0]
    20  [ 0.0000E+00,  0.0000E+00, -3.7500E-01]  [ 3.7500E-01,  0.0000E+00,  0.0000E+00]     4     4     0  [0, 0, 0]
prtvol = 0, max 20 points are written



 === Kohn-Sham gaps and band edges from IBZ mesh ===
 Direct band gap semiconductor
 Fundamental gap:     9.236 (eV)
   VBM:    -4.618 (eV) at k: [ 0.0000E+00,  0.0000E+00,  0.0000E+00]
   CBM:     4.618 (eV) at k: [ 0.0000E+00,  0.0000E+00,  0.0000E+00]
 Direct gap:         9.236 (eV) at k: [ 0.0000E+00,  0.0000E+00,  0.0000E+00]


 ==== FFT mesh for Green's function ====
  FFT mesh divisions ........................    16   16   16
  Augmented FFT divisions ...................    16   16   16
  FFT algorithm .............................   312
  FFT cache size ............................    16
- FFT uc_batch_size: 4
- FFT sc_batch_size: 4
 ==== Info on the GWR object ====

--- !GWR_params
iteration_state: {dtset: 4, }
gwr_task: G0W0
nband: 480
ntau: 12
ngkpt: [8, 8, 8, ]
ngqpt: [8, 8, 8, ]
chi_algo: supercell
sigma_algo: 'BZ-convolutions'
nkibz: 29
nqibz: 29
inclvkb: 2
q0: [  1.00000000E-05,   2.00000000E-05,   3.00000000E-05, ]
gw_icutcoul: 6
green_mpw: 1363
tchi_mpw: 228
g_ngfft: [16, 16, 16, 16, 16, 16, ]
P gwr_np_kgts: [4, 64, 2, 1, ]
P np_kibz: [
    1, 1, 1, 1, 1, 1, 1, 1, 
    1, 2, 1, 1, 1, 1, 1, 1, 
    2, 1, 1, 1, 1, 1, 1, 2, 
    1, 1, 1, 1, 1, 
]
P np_qibz: [
    1, 1, 1, 1, 1, 1, 1, 1, 
    1, 2, 1, 1, 1, 1, 1, 1, 
    2, 1, 1, 1, 1, 1, 1, 2, 
    1, 1, 1, 1, 1, 
]
ft_max_err_t2w_cos:   2.24616062E-05
ft_max_err_w2t_cos:   2.50412307E-06
ft_max_err_t2w_sin:   3.80006626E-04
cosft_duality_error:   8.05087733E-03
Minimax imaginary tau/omega mesh: !Tabular | # tau, weight(tau), omega, weight(omega)
    1 7.01538E-03   1.81332E-02   7.22840E-02   1.46924E-01
    2 3.81435E-02   4.49619E-02   2.31364E-01   1.76583E-01
    3 9.95376E-02   7.97050E-02   4.37874E-01   2.43835E-01
    4 2.02910E-01   1.30690E-01   7.37361E-01   3.66560E-01
    5 3.70749E-01   2.11381E-01   1.20026E+00   5.77921E-01
    6 6.42151E-01   3.41809E-01   1.94206E+00   9.37366E-01
    7 1.08058E+00   5.51381E-01   3.15923E+00   1.55244E+00
    8 1.78596E+00   8.84965E-01   5.19750E+00   2.62557E+00
    9 2.91539E+00   1.41488E+00   8.69693E+00   4.57589E+00
    10 4.72281E+00   2.27038E+00   1.49766E+01   8.47764E+00
    11 7.65581E+00   3.74155E+00   2.75329E+01   1.84716E+01
    12 1.27267E+01   6.90821E+00   6.28516E+01   6.85697E+01
...


 Computing chi0 head and wings with inclvkb: 2
 Using KS orbitals and KS energies...


 ==== FFT mesh for chi0 head/wings computation ====
  FFT mesh divisions ........................    32   32   32
  Augmented FFT divisions ...................    33   33   32
  FFT algorithm .............................   312
  FFT cache size ............................    16

 Computing diagonal matrix elements of Sigma_x
 Using KS orbitals and KS energies...


 ==== FFT mesh for Sigma_x ====
  FFT mesh divisions ........................    32   32   32
  Augmented FFT divisions ...................    33   33   32
  FFT algorithm .............................   312
  FFT cache size ............................    16


 Building Green's functions from KS orbitals and KS energies...



 Building correlated screening Wc ...

--- !EMACRO_WITHOUT_LOCAL_FIELDS
iteration_state: {dtset: 4, }
'epsilon_{iw, q -> Gamma}(0,0)': !Tabular |
      7.22839890E-02    2.06626606E+00    1.61567833E-23
      2.31363744E-01    1.93968534E+00   -6.19636712E-24
      4.37873989E-01    1.72652650E+00   -7.51219382E-24
      7.37361351E-01    1.49201226E+00    1.97108927E-24
      1.20026038E+00    1.29474223E+00   -1.57167598E-23
      1.94205904E+00    1.15906394E+00    7.02445778E-25
      3.15922627E+00    1.07803452E+00   -1.18765684E-23
      5.19750338E+00    1.03477168E+00    6.92422660E-24
      8.69693001E+00    1.01406121E+00   -5.02894833E-25
      1.49766353E+01    1.00511205E+00   -1.77893558E-25
      2.75329022E+01    1.00157475E+00   -1.64984675E-25
      6.28515878E+01    1.00030768E+00    7.94134410E-27
...


--- !EMACRO_WITH_LOCAL_FIELDS
iteration_state: {dtset: 4, }
'epsilon_{iw, q -> Gamma}(0,0)': !Tabular |
      7.22839890E-02    5.11439800E-01    0.00000000E+00
      2.31363744E-01    5.42496681E-01    0.00000000E+00
      4.37873989E-01    6.04574203E-01    0.00000000E+00
      7.37361351E-01    6.91884816E-01    0.00000000E+00
      1.20026038E+00    7.87863493E-01    0.00000000E+00
      1.94205904E+00    8.71540129E-01    0.00000000E+00
      3.15922627E+00    9.31373298E-01    0.00000000E+00
      5.19750338E+00    9.67589676E-01    0.00000000E+00
      8.69693001E+00    9.86413360E-01    0.00000000E+00
[...]
    20  [ 0.0000E+00,  0.0000E+00, -3.7500E-01]  [ 3.7500E-01,  0.0000E+00,  0.0000E+00]     4     4     0  [0, 0, 0]
prtvol = 0, max 20 points are written



 === Kohn-Sham gaps and band edges from IBZ mesh ===
 Direct band gap semiconductor
 Fundamental gap:     9.236 (eV)
   VBM:    -4.618 (eV) at k: [ 0.0000E+00,  0.0000E+00,  0.0000E+00]
   CBM:     4.618 (eV) at k: [ 0.0000E+00,  0.0000E+00,  0.0000E+00]
 Direct gap:         9.236 (eV) at k: [ 0.0000E+00,  0.0000E+00,  0.0000E+00]


 ==== FFT mesh for Green's function ====
  FFT mesh divisions ........................    16   16   16
  Augmented FFT divisions ...................    16   16   16
  FFT algorithm .............................   312
  FFT cache size ............................    16
- FFT uc_batch_size: 4
- FFT sc_batch_size: 4
 ==== Info on the GWR object ====

--- !GWR_params
iteration_state: {dtset: 9, }
gwr_task: G0W0
nband: 480
ntau: 22
ngkpt: [8, 8, 8, ]
ngqpt: [8, 8, 8, ]
chi_algo: supercell
sigma_algo: 'BZ-convolutions'
nkibz: 29
nqibz: 29
inclvkb: 2
q0: [  1.00000000E-05,   2.00000000E-05,   3.00000000E-05, ]
gw_icutcoul: 6
green_mpw: 1363
tchi_mpw: 228
g_ngfft: [16, 16, 16, 16, 16, 16, ]
P gwr_np_kgts: [4, 64, 2, 1, ]
P np_kibz: [
    1, 1, 1, 1, 1, 1, 1, 1, 
    1, 2, 1, 1, 1, 1, 1, 1, 
    2, 1, 1, 1, 1, 1, 1, 2, 
    1, 1, 1, 1, 1, 
]
P np_qibz: [
    1, 1, 1, 1, 1, 1, 1, 1, 
    1, 2, 1, 1, 1, 1, 1, 1, 
    2, 1, 1, 1, 1, 1, 1, 2, 
    1, 1, 1, 1, 1, 
]
ft_max_err_t2w_cos:   1.30953092E-07
ft_max_err_w2t_cos:   1.41104933E-08
ft_max_err_t2w_sin:   1.13123596E-06
cosft_duality_error:   1.05470557E+06
Minimax imaginary tau/omega mesh: !Tabular | # tau, weight(tau), omega, weight(omega)
    1 1.51829E-03   3.90783E-03   4.89141E-02   9.85424E-02
    2 8.10127E-03   9.32947E-03   1.51074E-01   1.07285E-01
    3 2.03790E-02   1.53622E-02   2.66703E-01   1.25720E-01
    4 3.91853E-02   2.24807E-02   4.06393E-01   1.55833E-01
    5 6.59272E-02   3.13694E-02   5.83318E-01   2.00848E-01
    6 1.02837E-01   4.30091E-02   8.14639E-01   2.65587E-01
    7 1.53310E-01   5.87568E-02   1.12337E+00   3.57051E-01
    8 2.22313E-01   8.04102E-02   1.54095E+00   4.85278E-01
    9 3.16868E-01   1.10299E-01   2.11089E+00   6.64604E-01
    10 4.46656E-01   1.51453E-01   2.89392E+00   9.15515E-01
    11 6.24848E-01   2.07870E-01   3.97543E+00   1.26737E+00
    12 8.69240E-01   2.84877E-01   5.47621E+00   1.76251E+00
    13 1.20382E+00   3.89615E-01   7.56842E+00   2.46254E+00
    14 1.66088E+00   5.31698E-01   1.04995E+01   3.45859E+00
    15 2.28396E+00   7.24167E-01   1.46295E+01   4.88907E+00
    16 3.13192E+00   9.84996E-01   2.04942E+01   6.97427E+00
    17 4.28511E+00   1.33972E+00   2.89192E+01   1.00936E+01
    18 5.85517E+00   1.82663E+00   4.12633E+01   1.49864E+01
    19 8.00285E+00   2.50867E+00   6.00257E+01   2.33674E+01
    20 1.09761E+01   3.50603E+00   9.07125E+01   4.02480E+01
    21 1.52117E+01   5.11194E+00   1.49462E+02   8.61921E+01
    22 2.17393E+01   8.48091E+00   3.16854E+02   3.29318E+02
...


 Computing chi0 head and wings with inclvkb: 2
 Using KS orbitals and KS energies...


 ==== FFT mesh for chi0 head/wings computation ====
  FFT mesh divisions ........................    32   32   32
  Augmented FFT divisions ...................    33   33   32
  FFT algorithm .............................   312
  FFT cache size ............................    16

 Computing diagonal matrix elements of Sigma_x
 Using KS orbitals and KS energies...


 ==== FFT mesh for Sigma_x ====
  FFT mesh divisions ........................    32   32   32
  Augmented FFT divisions ...................    33   33   32
  FFT algorithm .............................   312
  FFT cache size ............................    16


 Building Green's functions from KS orbitals and KS energies...



 Building correlated screening Wc ...

--- !EMACRO_WITHOUT_LOCAL_FIELDS
iteration_state: {dtset: 9, }
'epsilon_{iw, q -> Gamma}(0,0)': !Tabular |
      4.89141036E-02    2.07528090E+00    1.68374925E-24
      1.51074326E-01    2.01476073E+00    1.13642474E-23
      2.66702782E-01    1.90309238E+00    5.46476292E-24
      4.06392648E-01    1.75745320E+00    1.21255392E-23
      5.83318311E-01    1.59901619E+00   -7.94373386E-24
      8.14638822E-01    1.44786394E+00    1.55667279E-23
      1.12336669E+00    1.31832540E+00   -1.55280280E-23
      1.54094743E+00    1.21652663E+00   -1.34246661E-23
      2.11088793E+00    1.14163077E+00    1.94352154E-24
      2.89392060E+00    1.08925855E+00   -1.04071982E-23
      3.97542553E+00    1.05423391E+00   -6.48483344E-24
      5.47621302E+00    1.03181231E+00   -1.00250613E-23
      7.56841678E+00    1.01806104E+00   -4.91562945E-25
      1.04994553E+01    1.00995648E+00   -2.39129773E-25
      1.46295412E+01    1.00534499E+00    1.61755534E-24
      2.04941974E+01    1.00279939E+00   -1.89689345E-25
      2.89192197E+01    1.00143015E+00   -8.29308516E-26
      4.12633152E+01    1.00070953E+00    1.16603515E-25
      6.00256504E+01    1.00033712E+00    2.21067464E-27
      9.07124668E+01    1.00014806E+00   -2.69308855E-26
      1.49461751E+02    1.00005460E+00   -9.21830575E-27
      3.16853983E+02    1.00001216E+00   -9.26965791E-29
...


--- !EMACRO_WITH_LOCAL_FIELDS
iteration_state: {dtset: 9, }
'epsilon_{iw, q -> Gamma}(0,0)': !Tabular |
      4.89141036E-02    5.09368360E-01    0.00000000E+00
      1.51074326E-01    5.23621082E-01    0.00000000E+00
      2.66702782E-01    5.52214742E-01    0.00000000E+00
      4.06392648E-01    5.94688535E-01    0.00000000E+00
      5.83318311E-01    6.49091542E-01    0.00000000E+00
      8.14638822E-01    7.11247385E-01    0.00000000E+00
      1.12336669E+00    7.74983943E-01    0.00000000E+00
      1.54094743E+00    8.33930314E-01    0.00000000E+00
      2.11088793E+00    8.83680165E-01    0.00000000E+00
      2.89392060E+00    9.22526181E-01    0.00000000E+00
      3.97542553E+00    9.50845480E-01    0.00000000E+00
      5.47621302E+00    9.70210075E-01    0.00000000E+00
      7.56841678E+00    9.82682824E-01    0.00000000E+00
      1.04994553E+01    9.90296900E-01    0.00000000E+00
      1.46295412E+01    9.94734883E-01    0.00000000E+00
      2.04941974E+01    9.97224212E-01    0.00000000E+00
      2.89192197E+01    9.98576403E-01    0.00000000E+00
      4.12633152E+01    9.99292195E-01    0.00000000E+00
      6.00256504E+01    9.99663174E-01    0.00000000E+00
      9.07124668E+01    9.99852002E-01    0.00000000E+00
      1.49461751E+02    9.99945402E-01    0.00000000E+00
      3.16853983E+02    9.99987841E-01    0.00000000E+00
...



 Building Sigma_c with convolutions in k-space:
================================================================================
 QP results (energies in eV)
 Notations:
     E0: Kohn-Sham energy
     <VxcDFT>: Matrix elements of Vxc[n_val] without non-linear core correction (if any)
     SigX: Matrix elements of Sigma_x
     SigC(E0): Matrix elements of Sigma_c at E0
     Z: Renormalization factor
     E-E0: Difference between the QP and the KS energy.
     E-Eprev: Difference between QP energy at iteration i and i-1
     E: Quasi-particle energy
     Occ(E): Occupancy of QP state
 
 

--- !GWR_SelfEnergy_ee
iteration_state: {dtset: 9, }
kpoint     : [   0.000,    0.000,    0.000, ]
spin       : 1
gwr_scf_iteration: 1
gwr_task   : G0W0
QP_VBM_band: 9
QP_CBM_band: 5
KS_gap     :    9.236
QP_gap     :   12.054
Delta_QP_KS:    2.818
data: !Tabular |
     Band       E0 <VxcDFT>     SigX SigC(E0)        Z     E-E0  E-Eprev        E   Occ(E)
        1  -45.432  -25.583  -39.720   -0.082    1.147  -16.021  -16.021  -61.453    2.000
        2  -24.546  -22.783  -37.676    6.986    0.971   -5.646   -5.646  -30.192    2.000
        3   -4.618  -23.080  -30.773    2.685    1.003   -2.840   -2.840   -7.458    2.000
        4   -4.618  -23.080  -30.773    2.685    1.003   -2.840   -2.840   -7.458    2.000
        5   -4.618  -23.080  -30.773    2.685    1.003   -2.840   -2.840   -7.458    2.000
        6    4.618  -11.551   -6.672   -0.928    1.334    2.095    2.095    6.713    0.000
        7   19.551  -10.072   -3.106    4.497   -2.078  -39.062  -39.062  -19.511    0.000
        8   19.551  -10.072   -3.106    4.497   -2.078  -39.062  -39.062  -19.511    0.000
        9   19.551  -10.072   -3.106    4.497   -2.078  -39.062  -39.062  -19.511    0.000
...


--- !GWR_SelfEnergy_ee
iteration_state: {dtset: 9, }
kpoint     : [   0.500,    0.500,    0.000, ]
spin       : 1
gwr_scf_iteration: 1
gwr_task   : G0W0
QP_VBM_band: 4
QP_CBM_band: 7
KS_gap     :   15.957
QP_gap     :   20.978
Delta_QP_KS:    5.021
data: !Tabular |
     Band       E0 <VxcDFT>     SigX SigC(E0)        Z     E-E0  E-Eprev        E   Occ(E)
        1  -45.354  -25.705  -39.816   -0.083    1.145  -15.960  -15.960  -61.314    2.000
        2  -23.830  -23.620  -38.486    6.835    0.968   -5.895   -5.895  -29.724    2.000
        3   -7.657  -18.557  -26.747    2.366    1.020   -3.936   -3.936  -11.593    2.000
        4   -5.627  -21.597  -29.530    2.606    1.002   -3.312   -3.312   -8.939    2.000
        5   -5.627  -21.597  -29.530    2.606    1.002   -3.312   -3.312   -8.939    2.000
        6   10.330  -14.807   -8.537    0.146    1.208    7.371    7.371   17.700    0.000
        7   11.992   -7.626   -2.660  -17.718   -0.279    0.046    0.046   12.038    0.000
        8   13.034  -10.676   -4.831    2.351    2.464    3.093    3.093   16.127    0.000
...


================================================================================
== DATASET 10 ==================================================================
-   mpi_nproc: 512, omp_nthreads: -1 (-1 if OMP is not activated)


--- !DatasetInfo
iteration_state: {dtset: 10, }
dimensions: {natom: 2, nkpt: 29, mband: 480, nsppol: 1, nspinor: 1, nspden: 1, mpw: 1363, }
cutoff_energies: {ecut:  40.0, pawecutdg:  -1.0, }
electrons: {nelect:   1.00000000E+01, charge:   0.00000000E+00, occopt:   1.00000000E+00, tsmear:   1.00000000E-02, }
meta: {optdriver: 6, }
...

 mkfilename: getwfk from: ../outdata_gs_DS2_WFK

 mkfilename: getden from: ../outdata_gs_DS1_DEN

 Exchange-correlation functional for the present dataset will be:
  GGA: Perdew-Burke-Ernzerhof functional - ixc=11
 Citation for XC functional:
  J.P.Perdew, K.Burke, M.Ernzerhof, PRL 77, 3865 (1996)

.Using single precision arithmetic; gwpc =  4

- Reading GS density from: ../outdata_gs_DS1_DEN



--------------------------------------------------------------------------------

 Total charge density [el/Bohr^3]
)     Maximum=    2.7976E+00  at reduced coord.    0.0000    0.0000    0.0000
)     Minimum=    5.7388E-03  at reduced coord.    0.2500    0.2500    0.2500
   Integrated=    1.0000E+01
- Reading GS states from WFK file: ../outdata_gs_DS2_WFK
  Mapping kBZ --> kIBZ
 Legend: bz = TS(ibz) + g0 where isym is the index of the symrec operation S and itim is 1 if TR is used.
        BZ                                       IBZ                                       ibz  isym  itim  g0
     1  [ 0.0000E+00,  0.0000E+00,  0.0000E+00]  [ 0.0000E+00,  0.0000E+00,  0.0000E+00]     1     1     0  [0, 0, 0]
     2  [ 1.2500E-01,  0.0000E+00,  0.0000E+00]  [ 1.2500E-01,  0.0000E+00,  0.0000E+00]     2     1     0  [0, 0, 0]
     3  [-1.2500E-01,  0.0000E+00,  0.0000E+00]  [ 1.2500E-01,  0.0000E+00,  0.0000E+00]     2     2     0  [0, 0, 0]
     4  [ 0.0000E+00,  0.0000E+00, -1.2500E-01]  [ 1.2500E-01,  0.0000E+00,  0.0000E+00]     2     4     0  [0, 0, 0]
     5  [ 0.0000E+00,  1.2500E-01,  0.0000E+00]  [ 1.2500E-01,  0.0000E+00,  0.0000E+00]     2     7     0  [0, 0, 0]
     6  [ 1.2500E-01,  1.2500E-01,  1.2500E-01]  [ 1.2500E-01,  0.0000E+00,  0.0000E+00]     2     6     0  [0, 0, 0]
     7  [-1.2500E-01, -1.2500E-01, -1.2500E-01]  [ 1.2500E-01,  0.0000E+00,  0.0000E+00]     2     5     0  [0, 0, 0]
     8  [ 0.0000E+00, -1.2500E-01,  0.0000E+00]  [ 1.2500E-01,  0.0000E+00,  0.0000E+00]     2     8     0  [0, 0, 0]
     9  [ 0.0000E+00,  0.0000E+00,  1.2500E-01]  [ 1.2500E-01,  0.0000E+00,  0.0000E+00]     2     3     0  [0, 0, 0]
    10  [ 2.5000E-01,  0.0000E+00,  0.0000E+00]  [ 2.5000E-01,  0.0000E+00,  0.0000E+00]     3     1     0  [0, 0, 0]
    11  [ 2.5000E-01,  2.5000E-01,  2.5000E-01]  [ 2.5000E-01,  0.0000E+00,  0.0000E+00]     3     6     0  [0, 0, 0]
    12  [ 0.0000E+00,  2.5000E-01,  0.0000E+00]  [ 2.5000E-01,  0.0000E+00,  0.0000E+00]     3     7     0  [0, 0, 0]
    13  [ 0.0000E+00, -2.5000E-01,  0.0000E+00]  [ 2.5000E-01,  0.0000E+00,  0.0000E+00]     3     8     0  [0, 0, 0]
    14  [-2.5000E-01,  0.0000E+00,  0.0000E+00]  [ 2.5000E-01,  0.0000E+00,  0.0000E+00]     3     2     0  [0, 0, 0]
    15  [ 0.0000E+00,  0.0000E+00,  2.5000E-01]  [ 2.5000E-01,  0.0000E+00,  0.0000E+00]     3     3     0  [0, 0, 0]
    16  [ 0.0000E+00,  0.0000E+00, -2.5000E-01]  [ 2.5000E-01,  0.0000E+00,  0.0000E+00]     3     4     0  [0, 0, 0]
    17  [-2.5000E-01, -2.5000E-01, -2.5000E-01]  [ 2.5000E-01,  0.0000E+00,  0.0000E+00]     3     5     0  [0, 0, 0]
    18  [ 3.7500E-01,  0.0000E+00,  0.0000E+00]  [ 3.7500E-01,  0.0000E+00,  0.0000E+00]     4     1     0  [0, 0, 0]
    19  [-3.7500E-01, -3.7500E-01, -3.7500E-01]  [ 3.7500E-01,  0.0000E+00,  0.0000E+00]     4     5     0  [0, 0, 0]
    20  [ 0.0000E+00,  0.0000E+00, -3.7500E-01]  [ 3.7500E-01,  0.0000E+00,  0.0000E+00]     4     4     0  [0, 0, 0]
prtvol = 0, max 20 points are written


  Mapping qBZ --> qIBZ
 Legend: bz = TS(ibz) + g0 where isym is the index of the symrec operation S and itim is 1 if TR is used.
        BZ                                       IBZ                                       ibz  isym  itim  g0
     1  [ 0.0000E+00,  0.0000E+00,  0.0000E+00]  [ 0.0000E+00,  0.0000E+00,  0.0000E+00]     1     1     0  [0, 0, 0]
     2  [ 1.2500E-01,  0.0000E+00,  0.0000E+00]  [ 1.2500E-01,  0.0000E+00,  0.0000E+00]     2     1     0  [0, 0, 0]
     3  [-1.2500E-01,  0.0000E+00,  0.0000E+00]  [ 1.2500E-01,  0.0000E+00,  0.0000E+00]     2     2     0  [0, 0, 0]
     4  [ 0.0000E+00,  0.0000E+00, -1.2500E-01]  [ 1.2500E-01,  0.0000E+00,  0.0000E+00]     2     4     0  [0, 0, 0]
     5  [ 0.0000E+00,  1.2500E-01,  0.0000E+00]  [ 1.2500E-01,  0.0000E+00,  0.0000E+00]     2     7     0  [0, 0, 0]
     6  [ 1.2500E-01,  1.2500E-01,  1.2500E-01]  [ 1.2500E-01,  0.0000E+00,  0.0000E+00]     2     6     0  [0, 0, 0]
     7  [-1.2500E-01, -1.2500E-01, -1.2500E-01]  [ 1.2500E-01,  0.0000E+00,  0.0000E+00]     2     5     0  [0, 0, 0]
     8  [ 0.0000E+00, -1.2500E-01,  0.0000E+00]  [ 1.2500E-01,  0.0000E+00,  0.0000E+00]     2     8     0  [0, 0, 0]
     9  [ 0.0000E+00,  0.0000E+00,  1.2500E-01]  [ 1.2500E-01,  0.0000E+00,  0.0000E+00]     2     3     0  [0, 0, 0]
    10  [ 2.5000E-01,  0.0000E+00,  0.0000E+00]  [ 2.5000E-01,  0.0000E+00,  0.0000E+00]     3     1     0  [0, 0, 0]
    11  [ 2.5000E-01,  2.5000E-01,  2.5000E-01]  [ 2.5000E-01,  0.0000E+00,  0.0000E+00]     3     6     0  [0, 0, 0]
    12  [ 0.0000E+00,  2.5000E-01,  0.0000E+00]  [ 2.5000E-01,  0.0000E+00,  0.0000E+00]     3     7     0  [0, 0, 0]
    13  [ 0.0000E+00, -2.5000E-01,  0.0000E+00]  [ 2.5000E-01,  0.0000E+00,  0.0000E+00]     3     8     0  [0, 0, 0]
    14  [-2.5000E-01,  0.0000E+00,  0.0000E+00]  [ 2.5000E-01,  0.0000E+00,  0.0000E+00]     3     2     0  [0, 0, 0]
    15  [ 0.0000E+00,  0.0000E+00,  2.5000E-01]  [ 2.5000E-01,  0.0000E+00,  0.0000E+00]     3     3     0  [0, 0, 0]
    16  [ 0.0000E+00,  0.0000E+00, -2.5000E-01]  [ 2.5000E-01,  0.0000E+00,  0.0000E+00]     3     4     0  [0, 0, 0]
    17  [-2.5000E-01, -2.5000E-01, -2.5000E-01]  [ 2.5000E-01,  0.0000E+00,  0.0000E+00]     3     5     0  [0, 0, 0]
    18  [ 3.7500E-01,  0.0000E+00,  0.0000E+00]  [ 3.7500E-01,  0.0000E+00,  0.0000E+00]     4     1     0  [0, 0, 0]
    19  [-3.7500E-01, -3.7500E-01, -3.7500E-01]  [ 3.7500E-01,  0.0000E+00,  0.0000E+00]     4     5     0  [0, 0, 0]
    20  [ 0.0000E+00,  0.0000E+00, -3.7500E-01]  [ 3.7500E-01,  0.0000E+00,  0.0000E+00]     4     4     0  [0, 0, 0]
prtvol = 0, max 20 points are written



 === Kohn-Sham gaps and band edges from IBZ mesh ===
 Direct band gap semiconductor
 Fundamental gap:     9.236 (eV)
   VBM:    -4.618 (eV) at k: [ 0.0000E+00,  0.0000E+00,  0.0000E+00]
   CBM:     4.618 (eV) at k: [ 0.0000E+00,  0.0000E+00,  0.0000E+00]
 Direct gap:         9.236 (eV) at k: [ 0.0000E+00,  0.0000E+00,  0.0000E+00]


 ==== FFT mesh for Green's function ====
  FFT mesh divisions ........................    16   16   16
  Augmented FFT divisions ...................    16   16   16
  FFT algorithm .............................   312
  FFT cache size ............................    16
- FFT uc_batch_size: 4
- FFT sc_batch_size: 4
 ==== Info on the GWR object ====

--- !GWR_params
iteration_state: {dtset: 10, }
gwr_task: G0W0
nband: 480
ntau: 24
ngkpt: [8, 8, 8, ]
ngqpt: [8, 8, 8, ]
chi_algo: supercell
sigma_algo: 'BZ-convolutions'
nkibz: 29
nqibz: 29
inclvkb: 2
q0: [  1.00000000E-05,   2.00000000E-05,   3.00000000E-05, ]
gw_icutcoul: 6
green_mpw: 1363
tchi_mpw: 228
g_ngfft: [16, 16, 16, 16, 16, 16, ]
P gwr_np_kgts: [4, 64, 2, 1, ]
P np_kibz: [
    1, 1, 1, 1, 1, 1, 1, 1, 
    1, 2, 1, 1, 1, 1, 1, 1, 
    2, 1, 1, 1, 1, 1, 1, 2, 
    1, 1, 1, 1, 1, 
]
P np_qibz: [
    1, 1, 1, 1, 1, 1, 1, 1, 
    1, 2, 1, 1, 1, 1, 1, 1, 
    2, 1, 1, 1, 1, 1, 1, 2, 
    1, 1, 1, 1, 1, 
]
ft_max_err_t2w_cos:   1.48782863E-07
ft_max_err_w2t_cos:   8.37351256E-09
ft_max_err_t2w_sin:   4.87283131E-04
cosft_duality_error:   1.14918741E+13
Minimax imaginary tau/omega mesh: !Tabular | # tau, weight(tau), omega, weight(omega)
    1 6.79597E-04   1.74964E-03   4.90384E-02   9.87965E-02
    2 3.63051E-03   4.18712E-03   1.51481E-01   1.07607E-01
    3 9.15343E-03   6.92630E-03   2.67500E-01   1.26193E-01
    4 1.76628E-02   1.02083E-02   4.07783E-01   1.56566E-01
    5 2.98669E-02   1.43863E-02   5.85634E-01   2.01996E-01
    6 4.69022E-02   1.99713E-02   8.18401E-01   2.67377E-01
    7 7.05118E-02   2.76709E-02   1.12937E+00   3.59820E-01
    8 1.03259E-01   3.84244E-02   1.55041E+00   4.89523E-01
    9 1.48783E-01   5.34588E-02   2.12563E+00   6.71062E-01
    10 2.12137E-01   7.43930E-02   2.91666E+00   9.25253E-01
    11 3.00249E-01   1.03392E-01   4.01014E+00   1.28189E+00
    12 4.22569E-01   1.43369E-01   5.52865E+00   1.78378E+00
    13 5.91941E-01   1.98254E-01   7.64641E+00   2.49268E+00
    14 8.25790E-01   2.73340E-01   1.06125E+01   3.49834E+00
    15 1.14770E+00   3.75757E-01   1.47852E+01   4.93233E+00
    16 1.58958E+00   5.15129E-01   2.06841E+01   6.99042E+00
    17 2.19459E+00   7.04542E-01   2.90716E+01   9.97095E+00
    18 3.02128E+00   9.62047E-01   4.10881E+01   1.43484E+01
    19 4.14979E+00   1.31329E+00   5.84973E+01   2.09350E+01
    20 5.69168E+00   1.79672E+00   8.41975E+01   3.12977E+01
    21 7.80777E+00   2.47542E+00   1.23491E+02   4.90386E+01
    22 1.07461E+01   3.46960E+00   1.87980E+02   8.46420E+01
    23 1.49437E+01   5.07209E+00   3.11506E+02   1.81135E+02
    24 2.14288E+01   8.43483E+00   6.62829E+02   6.90582E+02
...


 Computing chi0 head and wings with inclvkb: 2
 Using KS orbitals and KS energies...


 ==== FFT mesh for chi0 head/wings computation ====
  FFT mesh divisions ........................    32   32   32
  Augmented FFT divisions ...................    33   33   32
  FFT algorithm .............................   312
  FFT cache size ............................    16

 Computing diagonal matrix elements of Sigma_x
 Using KS orbitals and KS energies...


 ==== FFT mesh for Sigma_x ====
  FFT mesh divisions ........................    32   32   32
  Augmented FFT divisions ...................    33   33   32
  FFT algorithm .............................   312
  FFT cache size ............................    16


 Building Green's functions from KS orbitals and KS energies...



 Building correlated screening Wc ...

--- !ERROR
src_file: m_slk.F90
src_line: 4454
mpi_rank: 0
message: |
    PCPOTRF returned info: 8
...

