
.Version 9.9.2 of ABINIT 
.(MPI version, prepared for a x86_64_linux_gnu11.2 computer) 

.Copyright (C) 1998-2022 ABINIT group . 
 ABINIT comes with ABSOLUTELY NO WARRANTY.
 It is free software, and you are welcome to redistribute it
 under certain conditions (GNU General Public License,
 see ~abinit/COPYING or http://www.gnu.org/copyleft/gpl.txt).

 ABINIT is a project of the Universite Catholique de Louvain,
 Corning Inc. and other collaborators, see ~abinit/doc/developers/contributors.txt .
 Please read https://docs.abinit.org/theory/acknowledgments for suggested
 acknowledgments of the ABINIT effort.
 For more information, see https://www.abinit.org .

.Starting date : Fri 17 Feb 2023.
- ( at 02h00 )
  
- input  file    -> run.abi
- output file    -> run.abo
- root for input  files -> indata_gs
- root for output files -> outdata_gs


 DATASET    1 : space group F-4 3 m (#216); Bravais cF (face-center cubic)
================================================================================
 Values of the parameters that define the memory need for DATASET  1.
     intxc =       0    ionmov =       0      iscf =       7    lmnmax =       4
     lnmax =       4     mgfft =      30  mpssoang =       2    mqgrid =    3001
     natom =       2  nloc_mem =       1    nspden =       1   nspinor =       1
    nsppol =       1      nsym =      24    n1xccc =    2501    ntypat =       2
    occopt =       1   xclevel =       2
-    mband =           8        mffmem =           1         mkmem =           1
       mpw =         148          nfft =       13500          nkpt =          29
================================================================================
P This job should need less than                       6.066 Mbytes of memory.
  Rough estimation (10% accuracy) of disk space for files :
_ WF disk file :      1.050 Mbytes ; DEN or POT disk file :      0.105 Mbytes.
================================================================================


 DATASET    2 : space group F-4 3 m (#216); Bravais cF (face-center cubic)
================================================================================
 Values of the parameters that define the memory need for DATASET  2.
     intxc =       0    ionmov =       0      iscf =       7    lmnmax =       4
     lnmax =       4     mgfft =      30  mpssoang =       2    mqgrid =    3001
     natom =       2  nloc_mem =       1    nspden =       1   nspinor =       1
    nsppol =       1      nsym =      24    n1xccc =    2501    ntypat =       2
    occopt =       1   xclevel =       2
-    mband =           5        mffmem =           1         mkmem =           1
       mpw =        1174          nfft =       27000          nkpt =          29
================================================================================
P This job should need less than                       9.762 Mbytes of memory.
  Rough estimation (10% accuracy) of disk space for files :
_ WF disk file :      2.600 Mbytes ; DEN or POT disk file :      0.208 Mbytes.
================================================================================

--------------------------------------------------------------------------------
------------- Echo of variables that govern the present computation ------------
--------------------------------------------------------------------------------
-
- outvars: echo of selected default values                                      
-   iomode0 =  0 , fftalg0 =312 , wfoptalg0 =  0
-
- outvars: echo of global parameters not present in the input file              
-  max_nthreads =    0
-
 -outvars: echo values of preprocessed input variables --------
-          iomode1          1
-          iomode2          0
            acell      6.8313599704E+00  6.8313599704E+00  6.8313599704E+00 Bohr
              amu      1.08110000E+01  1.40067400E+01
        autoparal1          1
        autoparal2          0
           bandpp1          2
           bandpp2          1
     densfor_pred1          6
     densfor_pred2          2
           diemac      1.20000000E+01
             ecut      4.50000000E+01 Hartree
-          fftalg         312
           getden1          0
           getden2         -1
           istwfk        1    0    0    0    1    0    0    0    0    0
                         0    0    0    0    0    0    0    0    0    0
                         1    0    0    0    0    0    0    0    0
              ixc          11
           jdtset        1    2
              kpt      0.00000000E+00  0.00000000E+00  0.00000000E+00
                       1.25000000E-01  0.00000000E+00  0.00000000E+00
                       2.50000000E-01  0.00000000E+00  0.00000000E+00
                       3.75000000E-01  0.00000000E+00  0.00000000E+00
                       5.00000000E-01  0.00000000E+00  0.00000000E+00
                       1.25000000E-01  1.25000000E-01  0.00000000E+00
                       2.50000000E-01  1.25000000E-01  0.00000000E+00
                       3.75000000E-01  1.25000000E-01  0.00000000E+00
                       5.00000000E-01  1.25000000E-01  0.00000000E+00
                      -3.75000000E-01  1.25000000E-01  0.00000000E+00
                      -2.50000000E-01  1.25000000E-01  0.00000000E+00
                      -1.25000000E-01  1.25000000E-01  0.00000000E+00
                       2.50000000E-01  2.50000000E-01  0.00000000E+00
                       3.75000000E-01  2.50000000E-01  0.00000000E+00
                       5.00000000E-01  2.50000000E-01  0.00000000E+00
                      -3.75000000E-01  2.50000000E-01  0.00000000E+00
                      -2.50000000E-01  2.50000000E-01  0.00000000E+00
                       3.75000000E-01  3.75000000E-01  0.00000000E+00
                       5.00000000E-01  3.75000000E-01  0.00000000E+00
                      -3.75000000E-01  3.75000000E-01  0.00000000E+00
                       5.00000000E-01  5.00000000E-01  0.00000000E+00
                       3.75000000E-01  2.50000000E-01  1.25000000E-01
                       5.00000000E-01  2.50000000E-01  1.25000000E-01
                      -3.75000000E-01  2.50000000E-01  1.25000000E-01
                       5.00000000E-01  3.75000000E-01  1.25000000E-01
                      -3.75000000E-01  3.75000000E-01  1.25000000E-01
                      -2.50000000E-01  3.75000000E-01  1.25000000E-01
                      -3.75000000E-01  5.00000000E-01  1.25000000E-01
                      -2.50000000E-01  5.00000000E-01  2.50000000E-01
         kptrlatt        8    0    0      0    8    0      0    0    8
          kptrlen      3.86440077E+01
P           mkmem           1
            natom           2
            nband1          8
            nband2          5
           ndtset           2
            ngfft          30      30      30
             nkpt          29
-          npband1          4
-          npband2          1
-           npfft1          2
-           npfft2          1
-        np_spkpt1         29
-        np_spkpt2          1
            nstep          50
             nsym          24
           ntypat           2
              occ1     2.000000  2.000000  2.000000  2.000000  0.000000  0.000000
                       0.000000  0.000000
              occ2     2.000000  2.000000  2.000000  2.000000  0.000000
        optdriver1          0
        optdriver2          6
           ortalg1         -2
           ortalg2          2
        paral_kgb1          1
        paral_kgb2          0
            rprim      0.0000000000E+00  5.0000000000E-01  5.0000000000E-01
                       5.0000000000E-01  0.0000000000E+00  5.0000000000E-01
                       5.0000000000E-01  5.0000000000E-01  0.0000000000E+00
          spgroup         216
           symrel      1  0  0   0  1  0   0  0  1       0 -1  1   0 -1  0   1 -1  0
                      -1  0  0  -1  0  1  -1  1  0       0  1 -1   1  0 -1   0  0 -1
                      -1  0  0  -1  1  0  -1  0  1       0 -1  1   1 -1  0   0 -1  0
                       1  0  0   0  0  1   0  1  0       0  1 -1   0  0 -1   1  0 -1
                      -1  0  1  -1  1  0  -1  0  0       0 -1  0   1 -1  0   0 -1  1
                       1  0 -1   0  0 -1   0  1 -1       0  1  0   0  0  1   1  0  0
                       1  0 -1   0  1 -1   0  0 -1       0 -1  0   0 -1  1   1 -1  0
                      -1  0  1  -1  0  0  -1  1  0       0  1  0   1  0  0   0  0  1
                       0  0 -1   0  1 -1   1  0 -1       1 -1  0   0 -1  1   0 -1  0
                       0  0  1   1  0  0   0  1  0      -1  1  0  -1  0  0  -1  0  1
                       0  0  1   0  1  0   1  0  0       1 -1  0   0 -1  0   0 -1  1
                       0  0 -1   1  0 -1   0  1 -1      -1  1  0  -1  0  1  -1  0  0
           timopt          -1
           tolvrs1     1.00000000E-08
           tolvrs2     0.00000000E+00
            typat      1  2
         wfoptalg1        114
         wfoptalg2          0
              wtk        0.00195    0.01563    0.01563    0.01563    0.00781    0.01172
                         0.04688    0.04688    0.04688    0.04688    0.04688    0.02344
                         0.01172    0.04688    0.04688    0.04688    0.02344    0.01172
                         0.04688    0.02344    0.00586    0.04688    0.09375    0.04688
                         0.04688    0.09375    0.04688    0.02344    0.01172
           xangst      0.0000000000E+00  0.0000000000E+00  0.0000000000E+00
                       9.0375000000E-01  9.0375000000E-01  9.0375000000E-01
            xcart      0.0000000000E+00  0.0000000000E+00  0.0000000000E+00
                       1.7078399926E+00  1.7078399926E+00  1.7078399926E+00
             xred      0.0000000000E+00  0.0000000000E+00  0.0000000000E+00
                       2.5000000000E-01  2.5000000000E-01  2.5000000000E-01
            znucl        5.00000    7.00000

================================================================================

 chkinp: Checking input parameters for consistency, jdtset=   1.

 chkinp: Checking input parameters for consistency, jdtset=   2.

================================================================================
== DATASET  1 ==================================================================
-   mpi_nproc: 232, omp_nthreads: -1 (-1 if OMP is not activated)


--- !DatasetInfo
iteration_state: {dtset: 1, }
dimensions: {natom: 2, nkpt: 29, mband: 8, nsppol: 1, nspinor: 1, nspden: 1, mpw: 148, }
cutoff_energies: {ecut:  45.0, pawecutdg:  -1.0, }
electrons: {nelect:   8.00000000E+00, charge:   0.00000000E+00, occopt:   1.00000000E+00, tsmear:   1.00000000E-02, }
meta: {optdriver: 0, ionmov: 0, optcell: 0, iscf: 7, paral_kgb: 1, }
...

 Exchange-correlation functional for the present dataset will be:
  GGA: Perdew-Burke-Ernzerhof functional - ixc=11
 Citation for XC functional:
  J.P.Perdew, K.Burke, M.Ernzerhof, PRL 77, 3865 (1996)

 Real(R)+Recip(G) space primitive vectors, cartesian coordinates (Bohr,Bohr^-1):
 R(1)=  0.0000000  3.4156800  3.4156800  G(1)= -0.1463837  0.1463837  0.1463837
 R(2)=  3.4156800  0.0000000  3.4156800  G(2)=  0.1463837 -0.1463837  0.1463837
 R(3)=  3.4156800  3.4156800  0.0000000  G(3)=  0.1463837  0.1463837 -0.1463837
 Unit cell volume ucvol=  7.9700587E+01 bohr^3
 Angles (23,13,12)=  6.00000000E+01  6.00000000E+01  6.00000000E+01 degrees

 getcut: wavevector=  0.0000  0.0000  0.0000  ngfft=  30  30  30
         ecut(hartree)=     45.000   => boxcut(ratio)=   2.05892

--- Pseudopotential description ------------------------------------------------
- pspini: atom type   1  psp file is B.psp8
- pspatm: opening atomic psp file    B.psp8
- B     ONCVPSP-3.2.3.1  r_core=   1.20849   1.20849
-  5.00000   3.00000    170503                znucl, zion, pspdat
    8   11    1    4       600   0.00000      pspcod,pspxc,lmax,lloc,mmax,r2well
    5.99000000000000    2.90000000000000    0.00000000000000   rchrg,fchrg,qchrg
     nproj     2     2
     extension_switch     1
  pspatm : epsatm=    3.38844677
         --- l  ekb(1:nproj) -->
             0    8.382104    1.234201
             1   -3.719492   -0.867526
 pspatm: atomic psp has been read  and splines computed

- pspini: atom type   2  psp file is N.psp8
- pspatm: opening atomic psp file    N.psp8
- N     ONCVPSP-3.2.3.1  r_core=   1.20551   1.35824
-  7.00000   5.00000    170503                znucl, zion, pspdat
    8   11    1    4       600   0.00000      pspcod,pspxc,lmax,lloc,mmax,r2well
    5.99000000000000    4.00000000000000    0.00000000000000   rchrg,fchrg,qchrg
     nproj     2     2
     extension_switch     1
  pspatm : epsatm=    5.20978323
         --- l  ekb(1:nproj) -->
             0    7.494509    0.636305
             1   -4.293905   -1.006988
 pspatm: atomic psp has been read  and splines computed

   6.87858400E+01                                ecore*ucvol(ha*bohr**3)
--------------------------------------------------------------------------------

_setup2: Arith. and geom. avg. npw (full set) are     144.877     144.873

================================================================================

--- !BeginCycle
iteration_state: {dtset: 1, }
solver: {iscf: 7, nstep: 50, nline: 4, wfoptalg: 114, }
tolerances: {tolvrs: 1.00E-08, }
...

     iter   Etot(hartree)      deltaE(h)  residm     vres2
 ETOT  1  -13.366452212449    -1.337E+01 1.390E-04 1.441E+02
 ETOT  2  -13.370817240192    -4.365E-03 1.598E-08 1.196E+02
 ETOT  3  -13.402616614153    -3.180E-02 1.165E-07 1.786E-01
 ETOT  4  -13.402648168276    -3.155E-05 2.396E-09 4.689E-03
 ETOT  5  -13.402648935373    -7.671E-07 8.371E-11 1.827E-05
 ETOT  6  -13.402648936144    -7.708E-10 1.242E-13 1.188E-07
 ETOT  7  -13.402648936165    -2.038E-11 4.052E-16 7.318E-10

 At SCF step    7       vres2   =  7.32E-10 < tolvrs=  1.00E-08 =>converged.

 Cartesian components of stress tensor (hartree/bohr^3)
  sigma(1 1)= -9.08698438E-05  sigma(3 2)=  0.00000000E+00
  sigma(2 2)= -9.08698438E-05  sigma(3 1)=  0.00000000E+00
  sigma(3 3)= -9.08698438E-05  sigma(2 1)=  0.00000000E+00


--- !ResultsGS
iteration_state: {dtset: 1, }
comment   : Summary of ground state results
lattice_vectors:
- [  0.0000000,   3.4156800,   3.4156800, ]
- [  3.4156800,   0.0000000,   3.4156800, ]
- [  3.4156800,   3.4156800,   0.0000000, ]
lattice_lengths: [   4.83050,    4.83050,    4.83050, ]
lattice_angles: [ 60.000,  60.000,  60.000, ] # degrees, (23, 13, 12)
lattice_volume:   7.9700587E+01
convergence: {deltae: -2.038E-11, res2:  7.318E-10, residm:  4.052E-16, diffor: null, }
etotal    :  -1.34026489E+01
entropy   :   0.00000000E+00
fermie    :   3.02126331E-01
cartesian_stress_tensor: # hartree/bohr^3
- [ -9.08698438E-05,   0.00000000E+00,   0.00000000E+00, ]
- [  0.00000000E+00,  -9.08698438E-05,   0.00000000E+00, ]
- [  0.00000000E+00,   0.00000000E+00,  -9.08698438E-05, ]
pressure_GPa:   2.6735E+00
xred      :
- [  0.0000E+00,   0.0000E+00,   0.0000E+00,  B]
- [  2.5000E-01,   2.5000E-01,   2.5000E-01,  N]
cartesian_forces: # hartree/bohr
- [ -2.46349669E-30,  -2.46349669E-30,   7.39049006E-30, ]
- [  2.46349669E-30,   2.46349669E-30,  -7.39049006E-30, ]
force_length_stats: {min:   8.17049418E-30, max:   8.17049418E-30, mean:   8.17049418E-30, }
...

 Integrated electronic density in atomic spheres:
 ------------------------------------------------
 Atom  Sphere_radius  Integrated_density
    1        2.00000          3.32064362
    2        2.00000          5.75158203
================================================================================

 ----iterations are completed or convergence reached----

 Mean square residual over all n,k,spin=   85.800E-19; max=  40.523E-17
 reduced coordinates (array xred) for    2 atoms
       0.000000000000      0.000000000000      0.000000000000
       0.250000000000      0.250000000000      0.250000000000
 rms dE/dt=  2.3800E-29; max dE/dt=  3.3658E-29; dE/dt below (all hartree)
    1       0.000000000000      0.000000000000      0.000000000000
    2       0.000000000000      0.000000000000     -0.000000000000

 cartesian coordinates (angstrom) at end:
    1      0.00000000000000     0.00000000000000     0.00000000000000
    2      0.90375000000000     0.90375000000000     0.90375000000000

 cartesian forces (hartree/bohr) at end:
    1     -0.00000000000000    -0.00000000000000     0.00000000000000
    2      0.00000000000000     0.00000000000000    -0.00000000000000
 frms,max,avg= 4.7172370E-30 7.3904901E-30   0.000E+00  0.000E+00  0.000E+00 h/b

 cartesian forces (eV/Angstrom) at end:
    1     -0.00000000000000    -0.00000000000000     0.00000000000000
    2      0.00000000000000     0.00000000000000    -0.00000000000000
 frms,max,avg= 2.4257006E-28 3.8003425E-28   0.000E+00  0.000E+00  0.000E+00 e/A
 length scales=  6.831359970382  6.831359970382  6.831359970382 bohr
              =  3.615000000000  3.615000000000  3.615000000000 angstroms
 prteigrs : about to open file outdata_gs_DS1_EIG
 Fermi (or HOMO) energy (hartree) =   0.30213   Average Vxc (hartree)=  -0.47450
 Eigenvalues (hartree) for nkpt=  29  k points:
 kpt#   1, nband=  8, wtk=  0.00195, kpt=  0.0000  0.0000  0.0000 (reduced coord)
  -0.44060    0.30213    0.30213    0.30213    0.62834    0.62834    0.62834    0.68306
 prteigrs : prtvol=0 or 1, do not print more k-points.


--- !EnergyTerms
iteration_state     : {dtset: 1, }
comment             : Components of total free energy in Hartree
kinetic             :  9.41356156154096E+00
hartree             :  1.79198224054411E+00
xc                  : -4.37211981473852E+00
Ewald energy        : -1.31703928940125E+01
psp_core            :  8.63053115298340E-01
local_psp           : -6.86084573408435E+00
non_local_psp       : -1.06788741071270E+00
total_energy        : -1.34026489361646E+01
total_energy_eV     : -3.64704624942797E+02
band_energy         :  1.04400229697630E-01
...


 Cartesian components of stress tensor (hartree/bohr^3)
  sigma(1 1)= -9.08698438E-05  sigma(3 2)=  0.00000000E+00
  sigma(2 2)= -9.08698438E-05  sigma(3 1)=  0.00000000E+00
  sigma(3 3)= -9.08698438E-05  sigma(2 1)=  0.00000000E+00

-Cartesian components of stress tensor (GPa)         [Pressure=  2.6735E+00 GPa]
- sigma(1 1)= -2.67348266E+00  sigma(3 2)=  0.00000000E+00
- sigma(2 2)= -2.67348266E+00  sigma(3 1)=  0.00000000E+00
- sigma(3 3)= -2.67348266E+00  sigma(2 1)=  0.00000000E+00

================================================================================
== DATASET  2 ==================================================================
-   mpi_nproc: 256, omp_nthreads: -1 (-1 if OMP is not activated)


--- !DatasetInfo
iteration_state: {dtset: 2, }
dimensions: {natom: 2, nkpt: 29, mband: 5, nsppol: 1, nspinor: 1, nspden: 1, mpw: 1174, }
cutoff_energies: {ecut:  45.0, pawecutdg:  -1.0, }
electrons: {nelect:   8.00000000E+00, charge:   0.00000000E+00, occopt:   1.00000000E+00, tsmear:   1.00000000E-02, }
meta: {optdriver: 6, }
...

 mkfilename : getden/=0, take file _DEN from output of DATASET   1.

 Exchange-correlation functional for the present dataset will be:
  GGA: Perdew-Burke-Ernzerhof functional - ixc=11
 Citation for XC functional:
  J.P.Perdew, K.Burke, M.Ernzerhof, PRL 77, 3865 (1996)

.Using single precision arithmetic; gwpc =  4

- Reading GS density from: outdata_gs_DS1_DEN



--------------------------------------------------------------------------------

 Total charge density [el/Bohr^3]
)     Maximum=    5.6358E-01  at reduced coord.    0.2000    0.2000    0.4000
)     Minimum=    7.6540E-03  at reduced coord.    0.0000    0.0000    0.0000
   Integrated=    8.0000E+00

 === KS gaps after direct diagonalization ===
 Indirect band gap semiconductor
 Fundamental gap:     4.534 (eV)
   VBM:     8.221 (eV) at k: [ 0.0000E+00,  0.0000E+00,  0.0000E+00]
   CBM:    12.755 (eV) at k: [ 5.0000E-01,  5.0000E-01,  0.0000E+00]
 Direct gap:         8.877 (eV) at k: [ 0.0000E+00,  0.0000E+00,  0.0000E+00]


== END DATASET(S) ==============================================================
================================================================================
  
 -outvars: echo values of variables after computation  --------
-          iomode1          1
-          iomode2          0
            acell      6.8313599704E+00  6.8313599704E+00  6.8313599704E+00 Bohr
              amu      1.08110000E+01  1.40067400E+01
        autoparal1          1
        autoparal2          0
           bandpp1          2
           bandpp2          1
     densfor_pred1          6
     densfor_pred2          2
           diemac      1.20000000E+01
             ecut      4.50000000E+01 Hartree
           etotal1    -1.3402648936E+01
           etotal2     0.0000000000E+00
            fcart1    -2.4634966855E-30 -2.4634966855E-30  7.3904900566E-30
                       2.4634966855E-30  2.4634966855E-30 -7.3904900566E-30
            fcart2     0.0000000000E+00  0.0000000000E+00  0.0000000000E+00
                       0.0000000000E+00  0.0000000000E+00  0.0000000000E+00
-          fftalg         312
           getden1          0
           getden2         -1
           istwfk        1    0    0    0    1    0    0    0    0    0
                         0    0    0    0    0    0    0    0    0    0
                         1    0    0    0    0    0    0    0    0
              ixc          11
           jdtset        1    2
              kpt      0.00000000E+00  0.00000000E+00  0.00000000E+00
                       1.25000000E-01  0.00000000E+00  0.00000000E+00
                       2.50000000E-01  0.00000000E+00  0.00000000E+00
                       3.75000000E-01  0.00000000E+00  0.00000000E+00
                       5.00000000E-01  0.00000000E+00  0.00000000E+00
                       1.25000000E-01  1.25000000E-01  0.00000000E+00
                       2.50000000E-01  1.25000000E-01  0.00000000E+00
                       3.75000000E-01  1.25000000E-01  0.00000000E+00
                       5.00000000E-01  1.25000000E-01  0.00000000E+00
                      -3.75000000E-01  1.25000000E-01  0.00000000E+00
                      -2.50000000E-01  1.25000000E-01  0.00000000E+00
                      -1.25000000E-01  1.25000000E-01  0.00000000E+00
                       2.50000000E-01  2.50000000E-01  0.00000000E+00
                       3.75000000E-01  2.50000000E-01  0.00000000E+00
                       5.00000000E-01  2.50000000E-01  0.00000000E+00
                      -3.75000000E-01  2.50000000E-01  0.00000000E+00
                      -2.50000000E-01  2.50000000E-01  0.00000000E+00
                       3.75000000E-01  3.75000000E-01  0.00000000E+00
                       5.00000000E-01  3.75000000E-01  0.00000000E+00
                      -3.75000000E-01  3.75000000E-01  0.00000000E+00
                       5.00000000E-01  5.00000000E-01  0.00000000E+00
                       3.75000000E-01  2.50000000E-01  1.25000000E-01
                       5.00000000E-01  2.50000000E-01  1.25000000E-01
                      -3.75000000E-01  2.50000000E-01  1.25000000E-01
                       5.00000000E-01  3.75000000E-01  1.25000000E-01
                      -3.75000000E-01  3.75000000E-01  1.25000000E-01
                      -2.50000000E-01  3.75000000E-01  1.25000000E-01
                      -3.75000000E-01  5.00000000E-01  1.25000000E-01
                      -2.50000000E-01  5.00000000E-01  2.50000000E-01
         kptrlatt        8    0    0      0    8    0      0    0    8
          kptrlen      3.86440077E+01
P           mkmem           1
            natom           2
            nband1          8
            nband2          5
           ndtset           2
            ngfft          30      30      30
             nkpt          29
-          npband1          4
-          npband2          1
-           npfft1          2
-           npfft2          1
-        np_spkpt1         29
-        np_spkpt2          1
            nstep          50
             nsym          24
           ntypat           2
              occ1     2.000000  2.000000  2.000000  2.000000  0.000000  0.000000
                       0.000000  0.000000
              occ2     2.000000  2.000000  2.000000  2.000000  0.000000
        optdriver1          0
        optdriver2          6
           ortalg1         -2
           ortalg2          2
        paral_kgb1          1
        paral_kgb2          0
            rprim      0.0000000000E+00  5.0000000000E-01  5.0000000000E-01
                       5.0000000000E-01  0.0000000000E+00  5.0000000000E-01
                       5.0000000000E-01  5.0000000000E-01  0.0000000000E+00
          spgroup         216
           strten1    -9.0869843818E-05 -9.0869843818E-05 -9.0869843818E-05
                       0.0000000000E+00  0.0000000000E+00  0.0000000000E+00
           strten2     0.0000000000E+00  0.0000000000E+00  0.0000000000E+00
                       0.0000000000E+00  0.0000000000E+00  0.0000000000E+00
           symrel      1  0  0   0  1  0   0  0  1       0 -1  1   0 -1  0   1 -1  0
                      -1  0  0  -1  0  1  -1  1  0       0  1 -1   1  0 -1   0  0 -1
                      -1  0  0  -1  1  0  -1  0  1       0 -1  1   1 -1  0   0 -1  0
                       1  0  0   0  0  1   0  1  0       0  1 -1   0  0 -1   1  0 -1
                      -1  0  1  -1  1  0  -1  0  0       0 -1  0   1 -1  0   0 -1  1
                       1  0 -1   0  0 -1   0  1 -1       0  1  0   0  0  1   1  0  0
                       1  0 -1   0  1 -1   0  0 -1       0 -1  0   0 -1  1   1 -1  0
                      -1  0  1  -1  0  0  -1  1  0       0  1  0   1  0  0   0  0  1
                       0  0 -1   0  1 -1   1  0 -1       1 -1  0   0 -1  1   0 -1  0
                       0  0  1   1  0  0   0  1  0      -1  1  0  -1  0  0  -1  0  1
                       0  0  1   0  1  0   1  0  0       1 -1  0   0 -1  0   0 -1  1
                       0  0 -1   1  0 -1   0  1 -1      -1  1  0  -1  0  1  -1  0  0
           timopt          -1
           tolvrs1     1.00000000E-08
           tolvrs2     0.00000000E+00
            typat      1  2
         wfoptalg1        114
         wfoptalg2          0
              wtk        0.00195    0.01563    0.01563    0.01563    0.00781    0.01172
                         0.04688    0.04688    0.04688    0.04688    0.04688    0.02344
                         0.01172    0.04688    0.04688    0.04688    0.02344    0.01172
                         0.04688    0.02344    0.00586    0.04688    0.09375    0.04688
                         0.04688    0.09375    0.04688    0.02344    0.01172
           xangst      0.0000000000E+00  0.0000000000E+00  0.0000000000E+00
                       9.0375000000E-01  9.0375000000E-01  9.0375000000E-01
            xcart      0.0000000000E+00  0.0000000000E+00  0.0000000000E+00
                       1.7078399926E+00  1.7078399926E+00  1.7078399926E+00
             xred      0.0000000000E+00  0.0000000000E+00  0.0000000000E+00
                       2.5000000000E-01  2.5000000000E-01  2.5000000000E-01
            znucl        5.00000    7.00000

================================================================================

 Test the timer : 
  a combined call timab(*,1,tsec) + timab(*,2,tsec) is 
- CPU time =    6.1143E-07 sec,    Wall time =    6.1146E-07 sec

- Total cpu        time (s,m,h):        946.5       15.78      0.263
- Total wall clock time (s,m,h):       1047.9       17.46      0.291
-
- For major independent code sections, cpu and wall times (sec),
-  as well as % of the time and number of calls for node 0
-
-<BEGIN_TIMER mpi_nprocs = 232, omp_nthreads = 1, mpi_rank = 0>
- cpu_time =            3.9, wall_time =            4.6
-
- routine                            cpu     %          wall     %      number of calls Gflops    Speedup Efficacity
-                                                                        (-1=no count)
- pspini                            0.527   0.1         0.527   0.1              2      -1.00        1.00       1.00
- ugb_from_diago                    0.522   0.1         0.590   0.1              1      -1.00        0.88       0.88
- timing timab                      0.119   0.0         0.119   0.0             14      -1.00        1.00       1.00
- fourwf%(pot)                      0.094   0.0         0.094   0.0             77      -1.00        1.00       1.00
- abinit(2)                         0.089   0.0         0.143   0.0              1      -1.00        0.62       0.62
- newkpt(excl. rwwf   )             0.075   0.0         0.075   0.0             -1      -1.00        1.00       1.00
- fourdp                            0.064   0.0         0.064   0.0            112      -1.00        1.00       1.00
- invars2                           0.035   0.0         0.035   0.0              2      -1.00        1.00       1.00
- xc:pot/=fourdp                    0.026   0.0         0.027   0.0              9      -1.00        0.99       0.99
- mkcore                            0.020   0.0         0.020   0.0              4      -1.00        1.00       1.00
- ewald                             0.020   0.0         0.020   0.0              2      -1.00        1.00       1.00
- nonlop(apply)                     0.015   0.0         0.015   0.0             77      -1.00        1.00       1.00
- stress                            0.014   0.0         0.014   0.0              1      -1.00        1.00       1.00
- vtorho(MPI)                       0.014   0.0         0.014   0.0              7      -1.00        0.98       0.98
- forces                            0.007   0.0         0.007   0.0              1      -1.00        1.00       1.00
- ewald2 (+vdw_dftd)                0.007   0.0         0.007   0.0              1      -1.00        1.00       1.00
- prep_bandfft_tabs                 0.005   0.0         0.005   0.0              2      -1.00        0.98       0.98
- vtowfk(contrib)                   0.004   0.0         0.004   0.0              7      -1.00        1.00       1.00
- kpgsph                            0.004   0.0         0.004   0.0            119      -1.00        1.00       1.00
- symrhg(no FFT)                    0.004   0.0         0.004   0.0              7      -1.00        1.00       1.00
- getghc-other                      0.003   0.0         0.003   0.0             -1      -1.00        0.99       0.99
- setsym                            0.001   0.0         0.001   0.0              1      -1.00        1.00       1.00
- others (133)                      0.003   0.0         0.003   0.0             -1      -1.00        0.99       0.99
-<END_TIMER>
-
- subtotal                          1.675   0.2         1.799   0.2                                  0.93       0.93

- For major independent code sections, cpu and wall times (sec),
- as well as % of the total time and number of calls 

-<BEGIN_TIMER mpi_nprocs = 232, omp_nthreads = 1, mpi_rank = world>
- cpu_time =         946.5, wall_time =        1047.9
-
- routine                            cpu     %          wall     %      number of calls Gflops    Speedup Efficacity
-                                                                        (-1=no count)
- ugb_from_diago                  129.801  13.7       146.884  14.0            232      -1.00        0.88       0.88
- pspini                          121.674  12.9       122.175  11.7            464      -1.00        1.00       1.00
- timing timab                     27.030   2.9        27.067   2.6           3248      -1.00        1.00       1.00
- fourwf%(pot)                     21.414   2.3        21.433   2.0          18108      -1.00        1.00       1.00
- newkpt(excl. rwwf   )            17.305   1.8        17.308   1.7           -232      -1.00        1.00       1.00
- abinit(2)                        11.826   1.2        12.192   1.2            232      -1.00        0.97       0.97
- fourdp                           11.807   1.2        11.838   1.1          25984      -1.00        1.00       1.00
- invars2                           7.819   0.8         7.820   0.7            464      -1.00        1.00       1.00
- xc:pot/=fourdp                    5.791   0.6         5.823   0.6           2088      -1.00        0.99       0.99
- mkcore                            4.692   0.5         4.692   0.4            928      -1.00        1.00       1.00
- vtorho(MPI)                       4.516   0.5         4.558   0.4           1624      -1.00        0.99       0.99
- ewald                             4.479   0.5         4.481   0.4            464      -1.00        1.00       1.00
- nonlop(apply)                     3.666   0.4         3.686   0.4          18108      -1.00        0.99       0.99
- stress                            3.304   0.3         3.305   0.3            232      -1.00        1.00       1.00
- ewald2 (+vdw_dftd)                1.634   0.2         1.634   0.2            232      -1.00        1.00       1.00
- forces                            1.577   0.2         1.582   0.2            232      -1.00        1.00       1.00
- prep_bandfft_tabs                 1.477   0.2         1.491   0.1            464      -1.00        0.99       0.99
- kpgsph                            1.126   0.1         1.127   0.1          27608      -1.00        1.00       1.00
- symrhg(no FFT)                    0.912   0.1         0.914   0.1           1624      -1.00        1.00       1.00
- scfcv-scprqt                      0.662   0.1         0.665   0.1           1624      -1.00        1.00       1.00
- vtowfk(contrib)                   0.622   0.1         0.626   0.1           1624      -1.00        0.99       0.99
- getghc-other                      0.495   0.1         0.494   0.0           -232      -1.00        1.00       1.00
- setsym                            0.253   0.0         0.253   0.0            232      -1.00        1.00       1.00
- vtowfk(ssdiag)                    0.136   0.0         0.142   0.0           -232      -1.00        0.96       0.96
- nonlop(forces)                    0.132   0.0         0.132   0.0           2088      -1.00        1.00       1.00
- vtowfk  (1)                       0.095   0.0         0.100   0.0           1624      -1.00        0.95       0.95
- mkffnl                            0.073   0.0         0.073   0.0            696      -1.00        0.99       0.99
- inwffil(excl. calls)              0.027   0.0         0.027   0.0            232      -1.00        0.98       0.98
- others (127)                      0.000   0.0         0.000   0.0             -1      -1.00        0.00       0.00
-<END_TIMER>

- subtotal                        384.343  40.6       402.524  38.4                                  0.95       0.95

 Partitioning of abinit
- abinit                          946.528 100.0      1047.877 100.0            232                   0.90       0.90
 
- abinit(1)                        44.267   4.7        51.233   4.9            232                   0.86       0.86
- abinit(2)                        11.826   1.2        12.192   1.2            232                   0.97       0.97
- indefo+macroin+invars2m           7.879   0.8         7.881   0.8            232                   1.00       1.00
- abinit(4)                        56.963   6.0        61.787   5.9            232                   0.92       0.92
- abinit(5)                        34.487   3.6        34.552   3.3            232                   1.00       1.00
- driver                          808.100  85.4       898.264  85.7            232                   0.90       0.90
- timana(1)                         0.224   0.0         0.235   0.0            232                   0.95       0.95
- timing timab                     27.030   2.9        27.067   2.6           3248                   1.00       1.00

- subtotal                        946.528 100.0      1047.877 100.0                                  0.90       0.90

 Partitioning of driver
- driver                          808.100  85.4       898.264  85.7            232                   0.90       0.90
 
- driver(bef. select case)         15.219   1.6        36.549   3.5            464                   0.42       0.42
- (other)                         792.535  83.7       861.349  82.2             -1                   0.92       0.92

- subtotal                        808.100  85.4       898.264  85.7                                  0.90       0.90

 Partitioning of gstateimg+gstate
- gstateimg                       347.518  36.7       394.153  37.6            232                   0.88       0.88
 
- gstate(1)                        22.404   2.4        22.554   2.2            464                   0.99       0.99
- gstate(pspini)                  121.730  12.9       122.234  11.7            232                   1.00       1.00
- gstate(init rhor rhog)            1.000   0.1         1.009   0.1            232                   0.99       0.99
- gstate(init history)              0.520   0.1         0.521   0.0            232                   1.00       1.00
- gstate(...scfcv)                 87.373   9.2       126.531  12.1            232                   0.69       0.69
- gstate(prtwf)                   113.177  12.0       119.906  11.4            232                   0.94       0.94
- gstate(clnup1)                    0.701   0.1         0.766   0.1            232                   0.91       0.91

- subtotal                        347.419  36.7       394.051  37.6                                  0.88       0.88

 Partitioning of scfcv_core
- scfcv_core                       86.419   9.1       125.494  12.0            232                   0.69       0.69
 
- scfcv_core(1)                     0.833   0.1         0.866   0.1            232                   0.96       0.96
- scfcv_core(iniloop, setv          5.806   0.6         5.832   0.6           1624                   1.00       1.00
- scfcv_core(vtorho(f))            46.892   5.0        70.139   6.7           1624                   0.67       0.67
- scfcv-scprqt                      0.662   0.1         0.665   0.1           1624                   1.00       1.00
- scfcv_core(rhotov)                9.923   1.0         9.928   0.9           1624                   1.00       1.00
- scfcv_core(qui loop)              0.818   0.1         0.819   0.1           1624                   1.00       1.00
- scfcv_core(mix pot)              13.169   1.4        28.665   2.7           1392                   0.46       0.46
- scfcv_core(just after sc          0.359   0.0         0.429   0.0            232                   0.84       0.84
- scfcv_core(afterscfloop)          6.892   0.7         7.017   0.7            232                   0.98       0.98
- scfcv_core(outscfcv)              0.896   0.1         0.964   0.1            232                   0.93       0.93

- subtotal                         86.419   9.1       125.494  12.0                                  0.69       0.69

 Partitioning of rhotov
- rhotov                            9.885   1.0         9.887   0.9           1624                   1.00       1.00
 
- rhotov(rhotoxc)                   8.634   0.9         8.636   0.8           1624                   1.00       1.00
- (other)                           0.993   0.1         0.991   0.1             -1                   1.00       1.00

- subtotal                          9.885   1.0         9.887   0.9                                  1.00       1.00

 Partitioning of vtorho
- vtorho                           46.855   5.0        70.101   6.7           1624                   0.67       0.67
 
- vtorho(bef. vtowfk)               1.299   0.1         1.315   0.1           1624                   0.99       0.99
- vtowfk                           36.376   3.8        59.494   5.7           1624                   0.61       0.61
- vtorho(aft. kpt loop)             0.905   0.1         0.909   0.1           1624                   1.00       1.00
- vtorho(MPI)                       4.516   0.5         4.558   0.4           1624                   0.99       0.99
- vtorho(highest occ. eig)          0.436   0.0         0.437   0.0           1624                   1.00       1.00
- vtorho(mkrho 2)                   2.908   0.3         2.969   0.3           3248                   0.98       0.98

- subtotal                         46.855   5.0        70.101   6.7                                  0.67       0.67

 Partitioning of vtowfk
- vtowfk                           36.376   3.8        59.494   5.7           1624                   0.61       0.61
 
- vtowfk(2)                        35.657   3.8        58.766   5.6           -232                   0.61       0.61
- prep_fourwf%vtow                  0.518   0.1         0.519   0.0           1624                   1.00       1.00

- subtotal                         36.376   3.8        59.494   5.7                                  0.61       0.61

 Partitioning of getghc
- getghc                           25.575   2.7        25.613   2.4          18108                   1.00       1.00
 
- fourwf%getghc                    21.414   2.3        21.433   2.0          18108                   1.00       1.00
- nonlop%getghc                     3.666   0.4         3.686   0.4          18108                   0.99       0.99
- getghc-other                      0.495   0.1         0.494   0.0           -232                   1.00       1.00

- subtotal                         25.575   2.7        25.613   2.4                                  1.00       1.00

 Partitioning of fourwf (upwards partitioning)
- fourwf                           21.854   2.3        21.873   2.1          19732                   1.00       1.00
 
- fourwf%getghc                    21.414   2.3        21.433   2.0          18108                   1.00       1.00
- fourwf%prep_four                  0.440   0.0         0.440   0.0           1624                   1.00       1.00

- subtotal                         21.854   2.3        21.873   2.1                                  1.00       1.00

 Partitioning of prep_getghc
- prep_getghc                      12.495   1.3        12.550   1.2          10440                   1.00       1.00
 
- prep_getghc(before if)            0.253   0.0         0.259   0.0          10440                   0.97       0.97
- prep_getghc(alltoall)             1.677   0.2         1.681   0.2          20880                   1.00       1.00
- prep_getghc(getghc - 2 )         10.339   1.1        10.381   1.0          10440                   1.00       1.00

- subtotal                         12.495   1.3        12.550   1.2                                  1.00       1.00

 Partitioning of prep_fourwf
- prep_fourwf                       0.518   0.1         0.519   0.0           1624                   1.00       1.00
 
- fourwf%prep_four                  0.440   0.0         0.440   0.0           1624                   1.00       1.00

- subtotal                          0.474   0.1         0.475   0.0                                  1.00       1.00

 Partitioning of prep_nonlop
- prep_nonlop                       0.620   0.1         0.630   0.1           2320                   0.98       0.98
 
- nonlop%prep_nonl%forstrn          0.351   0.0         0.359   0.0            232                   0.98       0.98
- (other)                           0.214   0.0         0.216   0.0             -1                   0.99       0.99

- subtotal                          0.620   0.1         0.630   0.1                                  0.98       0.98

 Partitioning of inwffil
- inwffil                          17.374   1.8        17.378   1.7            232                   1.00       1.00
 
- inwffil(call newkpt)             17.347   1.8        17.351   1.7            232                   1.00       1.00

- subtotal                         17.374   1.8        17.378   1.7                                  1.00       1.00

 Partitioning of newkpt
- newkpt                           17.347   1.8        17.351   1.7            232                   1.00       1.00
 
- newkpt(call wfconv)               0.214   0.0         0.216   0.0            232                   0.99       0.99
- newkpt(after loop   )            17.089   1.8        17.091   1.6            232                   1.00       1.00

- subtotal                         17.305   1.8        17.308   1.7                                  1.00       1.00

 Partitioning of newvtr
- newvtr                           12.925   1.4        28.376   2.7           1392                   0.46       0.46
 
- newvtr(call prcref_PMA)           1.281   0.1         1.284   0.1           1392                   1.00       1.00
- newvtr(aft. prcref_PMA)          10.774   1.1        26.211   2.5           1392                   0.41       0.41
- newvtr(mean potential)            0.531   0.1         0.532   0.1           1392                   1.00       1.00

- subtotal                         12.925   1.4        28.376   2.7                                  0.46       0.46

 Partitioning of  fourdp (upwards partitioning)
- fourdp                           11.807   1.2        11.838   1.1          25984                   1.00       1.00
 
- fourdp%(other)                   11.807   1.2        11.838   1.1          25984                   1.00       1.00

- subtotal                         11.807   1.2        11.838   1.1                                  1.00       1.00

 Partitioning of afterscfloop
- afterscfloop                      6.697   0.7         6.805   0.6            232                   0.98       0.98
 
- afterscfloop(forstr)              6.513   0.7         6.615   0.6            232                   0.98       0.98

- subtotal                          6.697   0.7         6.804   0.6                                  0.98       0.98

 Partitioning of forstr
- forstr                            6.356   0.7         6.429   0.6            232                   0.99       0.99
 
- forstr(forstrnps)                 1.193   0.1         1.204   0.1            232                   0.99       0.99
- forstr(forces)                    1.842   0.2         1.904   0.2            232                   0.97       0.97
- forstr(stress)                    3.320   0.4         3.321   0.3            232                   1.00       1.00

- subtotal                          6.355   0.7         6.429   0.6                                  0.99       0.99

 Partitioning of forstrnps
- forstrnps                         1.170   0.1         1.180   0.1            232                   0.99       0.99
 
- forstrnps(bef.loop band)          0.396   0.0         0.398   0.0            232                   1.00       1.00
- forstrnps(nonlop+prep_ba          0.394   0.0         0.402   0.0            232                   0.98       0.98
- forstrnps:synchr                  0.298   0.0         0.298   0.0            464                   1.00       1.00

- subtotal                          1.170   0.1         1.180   0.1                                  0.99       0.99

 Partitioning of outscfcv
- outscfcv                          0.843   0.1         0.908   0.1            232                   0.93       0.93
 
- outscfcv(preparation)             0.200   0.0         0.210   0.0            232                   0.95       0.95
- outscfcv(calcdenmagsph)           0.488   0.1         0.502   0.0            232                   0.97       0.97

- subtotal                          0.798   0.1         0.863   0.1                                  0.93       0.93

 Partitioning of lobpcgwf2 core engine
- lobpcgwf2                        35.522   3.8        58.624   5.6           2088                   0.61       0.61
 
- lobpcg_run                       34.914   3.7        57.995   5.5           2088                   0.60       0.60
- lobpcg_Bortho                     9.899   1.0        24.213   2.3          10440                   0.41       0.41
- lobpcg_RayleighRitz              11.632   1.2        20.332   1.9          10440                   0.57       0.57
- lobpcg_maxResidu                  0.443   0.0         0.446   0.0          18792                   0.99       0.99
- lobpcg_run@getAX_BX              12.670   1.3        12.731   1.2          10440                   1.00       1.00
- lobpcg_RayleighRitz@hegv          9.695   1.0        18.394   1.8          10440                   0.53       0.53

- subtotal                         79.414   8.4       134.279  12.8                                  0.59       0.59

 Partitioning of low-level xgBlock type
- xgBlock_potrf                     8.292   0.9        22.601   2.2          10440                   0.37       0.37
 
- xgBlock_trsm                      0.838   0.1         0.841   0.1          31320                   1.00       1.00
- xgBlock_gemm                      2.366   0.2         2.378   0.2         114840                   0.99       0.99
- xgBlock_hegvx                     9.453   1.0        18.151   1.7           8352                   0.52       0.52

- subtotal                         12.956   1.4        21.672   2.1                                  0.60       0.60
-
-Synchronisation (=leave_test) and MPI calls 
- communic.MPI                     23.605   2.5        23.645   2.3          11368                   1.00       1.00
-
- forstrnps:synchr                  0.298   0.0         0.298   0.0            464                   1.00       1.00
- alltoall%back_wf                  0.174   0.0         0.167   0.0          22504                   1.04       1.04
- alltoall%forw_wf                  0.056   0.0         0.051   0.0          20880                   1.08       1.08
- subtotal                          0.527   0.1         0.516   0.0                                  1.02       1.02

 Additional information
- timana(1)                         0.224   0.0         0.235   0.0            232                   0.95       0.95
- total timab                      27.445   2.9        27.483   2.6       45835367                   1.00       1.00
- fourwf                           21.854   2.3        21.873   2.1          19732                   1.00       1.00
- mklocl(2)                         0.182   0.0         0.182   0.0            232                   1.00       1.00
- nonlop(total)                     4.149   0.4         4.177   0.4          20428                   0.99       0.99
- xc:fourdp                         6.613   0.7         6.599   0.6          16704                   1.00       1.00
- read_rho                        125.675  13.3       125.755  12.0            232                   1.00       1.00

 timana : in multi dataset mode, the more detailed analysis is not done.

================================================================================

 Suggested references for the acknowledgment of ABINIT usage.

 The users of ABINIT have little formal obligations with respect to the ABINIT group
 (those specified in the GNU General Public License, http://www.gnu.org/copyleft/gpl.txt).
 However, it is common practice in the scientific literature,
 to acknowledge the efforts of people that have made the research possible.
 In this spirit, please find below suggested citations of work written by ABINIT developers,
 corresponding to implementations inside of ABINIT that you have used in the present run.
 Note also that it will be of great value to readers of publications presenting these results,
 to read papers enabling them to understand the theoretical formalism and details
 of the ABINIT implementation.
 For information on why they are suggested, see also https://docs.abinit.org/theory/acknowledgments.
-
- [1] Large scale ab initio calculations based on three levels of parallelization
- F. Bottin, S. Leroux, A. Knyazev, G. Zerah, Comput. Mat. Science 42, 329, (2008).
- Comment: in case LOBPCG algorithm is used (wfoptalg=4/14/114).
- Strong suggestion to cite this paper in your publications.
- This paper is also available at http://www.arxiv.org/abs/0707.3405
- DOI and bibtex: see https://docs.abinit.org/theory/bibliography/#bottin2008
-
- [2] The Abinit project: Impact, environment and recent developments.
- Computer Phys. Comm. 248, 107042 (2020).
- X.Gonze, B. Amadon, G. Antonius, F.Arnardi, L.Baguet, J.-M.Beuken,
- J.Bieder, F.Bottin, J.Bouchet, E.Bousquet, N.Brouwer, F.Bruneval,
- G.Brunin, T.Cavignac, J.-B. Charraud, Wei Chen, M.Cote, S.Cottenier,
- J.Denier, G.Geneste, Ph.Ghosez, M.Giantomassi, Y.Gillet, O.Gingras,
- D.R.Hamann, G.Hautier, Xu He, N.Helbig, N.Holzwarth, Y.Jia, F.Jollet,
- W.Lafargue-Dit-Hauret, K.Lejaeghere, M.A.L.Marques, A.Martin, C.Martins,
- H.P.C. Miranda, F.Naccarato, K. Persson, G.Petretto, V.Planes, Y.Pouillon,
- S.Prokhorenko, F.Ricci, G.-M.Rignanese, A.H.Romero, M.M.Schmitt, M.Torrent,
- M.J.van Setten, B.Van Troeye, M.J.Verstraete, G.Zerah and J.W.Zwanzig
- Comment: the fifth generic paper describing the ABINIT project.
- Note that a version of this paper, that is not formatted for Computer Phys. Comm. 
- is available at https://www.abinit.org/sites/default/files/ABINIT20.pdf .
- The licence allows the authors to put it on the Web.
- DOI and bibtex: see https://docs.abinit.org/theory/bibliography/#gonze2020
-
- [3] Optimized norm-conserving Vanderbilt pseudopotentials.
- D.R. Hamann, Phys. Rev. B 88, 085117 (2013).
- Comment: Some pseudopotential generated using the ONCVPSP code were used.
- DOI and bibtex: see https://docs.abinit.org/theory/bibliography/#hamann2013
-
- [4] ABINIT: Overview, and focus on selected capabilities
- J. Chem. Phys. 152, 124102 (2020).
- A. Romero, D.C. Allan, B. Amadon, G. Antonius, T. Applencourt, L.Baguet,
- J.Bieder, F.Bottin, J.Bouchet, E.Bousquet, F.Bruneval,
- G.Brunin, D.Caliste, M.Cote,
- J.Denier, C. Dreyer, Ph.Ghosez, M.Giantomassi, Y.Gillet, O.Gingras,
- D.R.Hamann, G.Hautier, F.Jollet, G. Jomard,
- A.Martin, 
- H.P.C. Miranda, F.Naccarato, G.Petretto, N.A. Pike, V.Planes,
- S.Prokhorenko, T. Rangel, F.Ricci, G.-M.Rignanese, M.Royo, M.Stengel, M.Torrent,
- M.J.van Setten, B.Van Troeye, M.J.Verstraete, J.Wiktor, J.W.Zwanziger, and X.Gonze.
- Comment: a global overview of ABINIT, with focus on selected capabilities .
- Note that a version of this paper, that is not formatted for J. Chem. Phys 
- is available at https://www.abinit.org/sites/default/files/ABINIT20_JPC.pdf .
- The licence allows the authors to put it on the Web.
- DOI and bibtex: see https://docs.abinit.org/theory/bibliography/#romero2020
-
- [5] Recent developments in the ABINIT software package.
- Computer Phys. Comm. 205, 106 (2016).
- X.Gonze, F.Jollet, F.Abreu Araujo, D.Adams, B.Amadon, T.Applencourt,
- C.Audouze, J.-M.Beuken, J.Bieder, A.Bokhanchuk, E.Bousquet, F.Bruneval
- D.Caliste, M.Cote, F.Dahm, F.Da Pieve, M.Delaveau, M.Di Gennaro,
- B.Dorado, C.Espejo, G.Geneste, L.Genovese, A.Gerossier, M.Giantomassi,
- Y.Gillet, D.R.Hamann, L.He, G.Jomard, J.Laflamme Janssen, S.Le Roux,
- A.Levitt, A.Lherbier, F.Liu, I.Lukacevic, A.Martin, C.Martins,
- M.J.T.Oliveira, S.Ponce, Y.Pouillon, T.Rangel, G.-M.Rignanese,
- A.H.Romero, B.Rousseau, O.Rubel, A.A.Shukri, M.Stankovski, M.Torrent,
- M.J.Van Setten, B.Van Troeye, M.J.Verstraete, D.Waroquier, J.Wiktor,
- B.Xu, A.Zhou, J.W.Zwanziger.
- Comment: the fourth generic paper describing the ABINIT project.
- Note that a version of this paper, that is not formatted for Computer Phys. Comm. 
- is available at https://www.abinit.org/sites/default/files/ABINIT16.pdf .
- The licence allows the authors to put it on the Web.
- DOI and bibtex: see https://docs.abinit.org/theory/bibliography/#gonze2016
-
- Proc.   0 individual time (sec): cpu=          3.9  wall=          4.6

================================================================================

 Calculation completed.
.Delivered   0 WARNINGs and   0 COMMENTs to log file.
+Overall time at end (sec) : cpu=       1063.8  wall=       1169.4
