
.Version 9.9.2 of ABINIT 
.(MPI version, prepared for a x86_64_linux_gnu11.2 computer) 

.Copyright (C) 1998-2022 ABINIT group . 
 ABINIT comes with ABSOLUTELY NO WARRANTY.
 It is free software, and you are welcome to redistribute it
 under certain conditions (GNU General Public License,
 see ~abinit/COPYING or http://www.gnu.org/copyleft/gpl.txt).

 ABINIT is a project of the Universite Catholique de Louvain,
 Corning Inc. and other collaborators, see ~abinit/doc/developers/contributors.txt .
 Please read https://docs.abinit.org/theory/acknowledgments for suggested
 acknowledgments of the ABINIT effort.
 For more information, see https://www.abinit.org .

.Starting date : Thu 16 Feb 2023.
- ( at 23h09 )
  
- input  file    -> run.abi
- output file    -> run.abo
- root for input  files -> indata_gs
- root for output files -> outdata_gs


 DATASET    1 : space group Fd -3 m (#227); Bravais cF (face-center cubic)
================================================================================
 Values of the parameters that define the memory need for DATASET  1.
     intxc =       0    ionmov =       0      iscf =       7    lmnmax =       4
     lnmax =       4     mgfft =      30  mpssoang =       2    mqgrid =    3001
     natom =       2  nloc_mem =       1    nspden =       1   nspinor =       1
    nsppol =       1      nsym =      48    n1xccc =    2501    ntypat =       1
    occopt =       1   xclevel =       2
-    mband =           8        mffmem =           1         mkmem =           1
       mpw =         235          nfft =       13500          nkpt =          29
================================================================================
P This job should need less than                       5.743 Mbytes of memory.
  Rough estimation (10% accuracy) of disk space for files :
_ WF disk file :      1.666 Mbytes ; DEN or POT disk file :      0.105 Mbytes.
================================================================================


 DATASET    2 : space group Fd -3 m (#227); Bravais cF (face-center cubic)
================================================================================
 Values of the parameters that define the memory need for DATASET  2.
     intxc =       0    ionmov =       0      iscf =       7    lmnmax =       4
     lnmax =       4     mgfft =      30  mpssoang =       2    mqgrid =    3001
     natom =       2  nloc_mem =       1    nspden =       1   nspinor =       1
    nsppol =       1      nsym =      48    n1xccc =    2501    ntypat =       1
    occopt =       1   xclevel =       2
-    mband =           5        mffmem =           1         mkmem =           1
       mpw =         941          nfft =       27000          nkpt =          29
================================================================================
P This job should need less than                       9.399 Mbytes of memory.
  Rough estimation (10% accuracy) of disk space for files :
_ WF disk file :      2.084 Mbytes ; DEN or POT disk file :      0.208 Mbytes.
================================================================================

--------------------------------------------------------------------------------
------------- Echo of variables that govern the present computation ------------
--------------------------------------------------------------------------------
-
- outvars: echo of selected default values                                      
-   iomode0 =  0 , fftalg0 =312 , wfoptalg0 =  0
-
- outvars: echo of global parameters not present in the input file              
-  max_nthreads =    0
-
 -outvars: echo values of preprocessed input variables --------
-          iomode1          1
-          iomode2          0
            acell      6.7406531160E+00  6.7406531160E+00  6.7406531160E+00 Bohr
              amu      1.20110000E+01
        autoparal1          1
        autoparal2          0
           bandpp1          4
           bandpp2          1
     densfor_pred1          6
     densfor_pred2          2
           diemac      1.20000000E+01
             ecut      4.00000000E+01 Hartree
-          fftalg         312
           getden1          0
           getden2         -1
           istwfk        1    0    0    0    1    0    0    0    0    0
                         0    0    0    0    0    0    0    0    0    0
                         1    0    0    0    0    0    0    0    0
              ixc          11
           jdtset        1    2
              kpt      0.00000000E+00  0.00000000E+00  0.00000000E+00
                       1.25000000E-01  0.00000000E+00  0.00000000E+00
                       2.50000000E-01  0.00000000E+00  0.00000000E+00
                       3.75000000E-01  0.00000000E+00  0.00000000E+00
                       5.00000000E-01  0.00000000E+00  0.00000000E+00
                       1.25000000E-01  1.25000000E-01  0.00000000E+00
                       2.50000000E-01  1.25000000E-01  0.00000000E+00
                       3.75000000E-01  1.25000000E-01  0.00000000E+00
                       5.00000000E-01  1.25000000E-01  0.00000000E+00
                      -3.75000000E-01  1.25000000E-01  0.00000000E+00
                      -2.50000000E-01  1.25000000E-01  0.00000000E+00
                      -1.25000000E-01  1.25000000E-01  0.00000000E+00
                       2.50000000E-01  2.50000000E-01  0.00000000E+00
                       3.75000000E-01  2.50000000E-01  0.00000000E+00
                       5.00000000E-01  2.50000000E-01  0.00000000E+00
                      -3.75000000E-01  2.50000000E-01  0.00000000E+00
                      -2.50000000E-01  2.50000000E-01  0.00000000E+00
                       3.75000000E-01  3.75000000E-01  0.00000000E+00
                       5.00000000E-01  3.75000000E-01  0.00000000E+00
                      -3.75000000E-01  3.75000000E-01  0.00000000E+00
                       5.00000000E-01  5.00000000E-01  0.00000000E+00
                       3.75000000E-01  2.50000000E-01  1.25000000E-01
                       5.00000000E-01  2.50000000E-01  1.25000000E-01
                      -3.75000000E-01  2.50000000E-01  1.25000000E-01
                       5.00000000E-01  3.75000000E-01  1.25000000E-01
                      -3.75000000E-01  3.75000000E-01  1.25000000E-01
                      -2.50000000E-01  3.75000000E-01  1.25000000E-01
                      -3.75000000E-01  5.00000000E-01  1.25000000E-01
                      -2.50000000E-01  5.00000000E-01  2.50000000E-01
         kptrlatt        8    0    0      0    8    0      0    0    8
          kptrlen      3.81308922E+01
P           mkmem           1
            natom           2
            nband1          8
            nband2          5
           ndtset           2
            ngfft          30      30      30
             nkpt          29
-          npband1          2
-          npband2          1
-           npfft1          2
-           npfft2          1
-        np_spkpt1         29
-        np_spkpt2          1
            nstep          50
             nsym          48
           ntypat           1
              occ1     2.000000  2.000000  2.000000  2.000000  0.000000  0.000000
                       0.000000  0.000000
              occ2     2.000000  2.000000  2.000000  2.000000  0.000000
        optdriver1          0
        optdriver2          6
           ortalg1         -2
           ortalg2          2
        paral_kgb1          1
        paral_kgb2          0
            rprim      0.0000000000E+00  5.0000000000E-01  5.0000000000E-01
                       5.0000000000E-01  0.0000000000E+00  5.0000000000E-01
                       5.0000000000E-01  5.0000000000E-01  0.0000000000E+00
          spgroup         227
           symrel      1  0  0   0  1  0   0  0  1      -1  0  0   0 -1  0   0  0 -1
                       0 -1  1   0 -1  0   1 -1  0       0  1 -1   0  1  0  -1  1  0
                      -1  0  0  -1  0  1  -1  1  0       1  0  0   1  0 -1   1 -1  0
                       0  1 -1   1  0 -1   0  0 -1       0 -1  1  -1  0  1   0  0  1
                      -1  0  0  -1  1  0  -1  0  1       1  0  0   1 -1  0   1  0 -1
                       0 -1  1   1 -1  0   0 -1  0       0  1 -1  -1  1  0   0  1  0
                       1  0  0   0  0  1   0  1  0      -1  0  0   0  0 -1   0 -1  0
                       0  1 -1   0  0 -1   1  0 -1       0 -1  1   0  0  1  -1  0  1
                      -1  0  1  -1  1  0  -1  0  0       1  0 -1   1 -1  0   1  0  0
                       0 -1  0   1 -1  0   0 -1  1       0  1  0  -1  1  0   0  1 -1
                       1  0 -1   0  0 -1   0  1 -1      -1  0  1   0  0  1   0 -1  1
                       0  1  0   0  0  1   1  0  0       0 -1  0   0  0 -1  -1  0  0
                       1  0 -1   0  1 -1   0  0 -1      -1  0  1   0 -1  1   0  0  1
                       0 -1  0   0 -1  1   1 -1  0       0  1  0   0  1 -1  -1  1  0
                      -1  0  1  -1  0  0  -1  1  0       1  0 -1   1  0  0   1 -1  0
                       0  1  0   1  0  0   0  0  1       0 -1  0  -1  0  0   0  0 -1
                       0  0 -1   0  1 -1   1  0 -1       0  0  1   0 -1  1  -1  0  1
                       1 -1  0   0 -1  1   0 -1  0      -1  1  0   0  1 -1   0  1  0
                       0  0  1   1  0  0   0  1  0       0  0 -1  -1  0  0   0 -1  0
                      -1  1  0  -1  0  0  -1  0  1       1 -1  0   1  0  0   1  0 -1
                       0  0  1   0  1  0   1  0  0       0  0 -1   0 -1  0  -1  0  0
                       1 -1  0   0 -1  0   0 -1  1      -1  1  0   0  1  0   0  1 -1
                       0  0 -1   1  0 -1   0  1 -1       0  0  1  -1  0  1   0 -1  1
                      -1  1  0  -1  0  1  -1  0  0       1 -1  0   1  0 -1   1  0  0
           timopt          -1
            tnons      0.0000000  0.0000000  0.0000000     0.2500000  0.2500000  0.2500000
                       0.0000000  0.0000000  0.0000000     0.2500000  0.2500000  0.2500000
                       0.0000000  0.0000000  0.0000000     0.2500000  0.2500000  0.2500000
                       0.0000000  0.0000000  0.0000000     0.2500000  0.2500000  0.2500000
                       0.0000000  0.0000000  0.0000000     0.2500000  0.2500000  0.2500000
                       0.0000000  0.0000000  0.0000000     0.2500000  0.2500000  0.2500000
                       0.0000000  0.0000000  0.0000000     0.2500000  0.2500000  0.2500000
                       0.0000000  0.0000000  0.0000000     0.2500000  0.2500000  0.2500000
                       0.0000000  0.0000000  0.0000000     0.2500000  0.2500000  0.2500000
                       0.0000000  0.0000000  0.0000000     0.2500000  0.2500000  0.2500000
                       0.0000000  0.0000000  0.0000000     0.2500000  0.2500000  0.2500000
                       0.0000000  0.0000000  0.0000000     0.2500000  0.2500000  0.2500000
                       0.0000000  0.0000000  0.0000000     0.2500000  0.2500000  0.2500000
                       0.0000000  0.0000000  0.0000000     0.2500000  0.2500000  0.2500000
                       0.0000000  0.0000000  0.0000000     0.2500000  0.2500000  0.2500000
                       0.0000000  0.0000000  0.0000000     0.2500000  0.2500000  0.2500000
                       0.0000000  0.0000000  0.0000000     0.2500000  0.2500000  0.2500000
                       0.0000000  0.0000000  0.0000000     0.2500000  0.2500000  0.2500000
                       0.0000000  0.0000000  0.0000000     0.2500000  0.2500000  0.2500000
                       0.0000000  0.0000000  0.0000000     0.2500000  0.2500000  0.2500000
                       0.0000000  0.0000000  0.0000000     0.2500000  0.2500000  0.2500000
                       0.0000000  0.0000000  0.0000000     0.2500000  0.2500000  0.2500000
                       0.0000000  0.0000000  0.0000000     0.2500000  0.2500000  0.2500000
                       0.0000000  0.0000000  0.0000000     0.2500000  0.2500000  0.2500000
           tolvrs1     1.00000000E-08
           tolvrs2     0.00000000E+00
            typat      1  1
         wfoptalg1        114
         wfoptalg2          0
              wtk        0.00195    0.01563    0.01563    0.01563    0.00781    0.01172
                         0.04688    0.04688    0.04688    0.04688    0.04688    0.02344
                         0.01172    0.04688    0.04688    0.04688    0.02344    0.01172
                         0.04688    0.02344    0.00586    0.04688    0.09375    0.04688
                         0.04688    0.09375    0.04688    0.02344    0.01172
           xangst      0.0000000000E+00  0.0000000000E+00  0.0000000000E+00
                       8.9175000000E-01  8.9175000000E-01  8.9175000000E-01
            xcart      0.0000000000E+00  0.0000000000E+00  0.0000000000E+00
                       1.6851632790E+00  1.6851632790E+00  1.6851632790E+00
             xred      0.0000000000E+00  0.0000000000E+00  0.0000000000E+00
                       2.5000000000E-01  2.5000000000E-01  2.5000000000E-01
            znucl        6.00000

================================================================================

 chkinp: Checking input parameters for consistency, jdtset=   1.

 chkinp: Checking input parameters for consistency, jdtset=   2.

================================================================================
== DATASET  1 ==================================================================
-   mpi_nproc: 116, omp_nthreads: -1 (-1 if OMP is not activated)


--- !DatasetInfo
iteration_state: {dtset: 1, }
dimensions: {natom: 2, nkpt: 29, mband: 8, nsppol: 1, nspinor: 1, nspden: 1, mpw: 235, }
cutoff_energies: {ecut:  40.0, pawecutdg:  -1.0, }
electrons: {nelect:   8.00000000E+00, charge:   0.00000000E+00, occopt:   1.00000000E+00, tsmear:   1.00000000E-02, }
meta: {optdriver: 0, ionmov: 0, optcell: 0, iscf: 7, paral_kgb: 1, }
...

 Exchange-correlation functional for the present dataset will be:
  GGA: Perdew-Burke-Ernzerhof functional - ixc=11
 Citation for XC functional:
  J.P.Perdew, K.Burke, M.Ernzerhof, PRL 77, 3865 (1996)

 Real(R)+Recip(G) space primitive vectors, cartesian coordinates (Bohr,Bohr^-1):
 R(1)=  0.0000000  3.3703266  3.3703266  G(1)= -0.1483536  0.1483536  0.1483536
 R(2)=  3.3703266  0.0000000  3.3703266  G(2)=  0.1483536 -0.1483536  0.1483536
 R(3)=  3.3703266  3.3703266  0.0000000  G(3)=  0.1483536  0.1483536 -0.1483536
 Unit cell volume ucvol=  7.6567760E+01 bohr^3
 Angles (23,13,12)=  6.00000000E+01  6.00000000E+01  6.00000000E+01 degrees

 getcut: wavevector=  0.0000  0.0000  0.0000  ngfft=  30  30  30
         ecut(hartree)=     40.000   => boxcut(ratio)=   2.21320

 getcut : COMMENT -
  Note that boxcut > 2.2 ; recall that boxcut=Gcut(box)/Gcut(sphere) = 2
  is sufficient for exact treatment of convolution.
  Such a large boxcut is a waste : you could raise ecut
  e.g. ecut=   48.982657 Hartrees makes boxcut=2


--- Pseudopotential description ------------------------------------------------
- pspini: atom type   1  psp file is C.psp8
- pspatm: opening atomic psp file    C.psp8
- C     ONCVPSP-3.2.3.1  r_core=   1.20440   1.26326
-  6.00000   4.00000    170503                znucl, zion, pspdat
    8   11    1    4       600   0.00000      pspcod,pspxc,lmax,lloc,mmax,r2well
    5.99000000000000    4.00000000000000    0.00000000000000   rchrg,fchrg,qchrg
     nproj     2     2
     extension_switch     1
  pspatm : epsatm=    4.31347020
         --- l  ekb(1:nproj) -->
             0    6.481548    0.385504
             1   -4.199961   -0.877517
 pspatm: atomic psp has been read  and splines computed

   6.90155232E+01                                ecore*ucvol(ha*bohr**3)
--------------------------------------------------------------------------------

_setup2: Arith. and geom. avg. npw (full set) are     232.467     232.462

================================================================================

--- !BeginCycle
iteration_state: {dtset: 1, }
solver: {iscf: 7, nstep: 50, nline: 4, wfoptalg: 114, }
tolerances: {tolvrs: 1.00E-08, }
...

     iter   Etot(hartree)      deltaE(h)  residm     vres2
 ETOT  1  -12.031102375575    -1.203E+01 3.341E-05 4.658E+01
 ETOT  2  -12.037557106864    -6.455E-03 2.918E-10 1.755E-01
 ETOT  3  -12.037575173968    -1.807E-05 1.973E-10 3.172E-03
 ETOT  4  -12.037575382602    -2.086E-07 5.323E-12 3.660E-05
 ETOT  5  -12.037575384077    -1.474E-09 1.128E-13 7.542E-08
 ETOT  6  -12.037575384078    -1.377E-12 5.067E-16 1.930E-10

 At SCF step    6       vres2   =  1.93E-10 < tolvrs=  1.00E-08 =>converged.

 Cartesian components of stress tensor (hartree/bohr^3)
  sigma(1 1)= -5.93996856E-05  sigma(3 2)=  0.00000000E+00
  sigma(2 2)= -5.93996856E-05  sigma(3 1)=  0.00000000E+00
  sigma(3 3)= -5.93996856E-05  sigma(2 1)=  0.00000000E+00


--- !ResultsGS
iteration_state: {dtset: 1, }
comment   : Summary of ground state results
lattice_vectors:
- [  0.0000000,   3.3703266,   3.3703266, ]
- [  3.3703266,   0.0000000,   3.3703266, ]
- [  3.3703266,   3.3703266,   0.0000000, ]
lattice_lengths: [   4.76636,    4.76636,    4.76636, ]
lattice_angles: [ 60.000,  60.000,  60.000, ] # degrees, (23, 13, 12)
lattice_volume:   7.6567760E+01
convergence: {deltae: -1.377E-12, res2:  1.930E-10, residm:  5.067E-16, diffor: null, }
etotal    :  -1.20375754E+01
entropy   :   0.00000000E+00
fermie    :   3.78153310E-01
cartesian_stress_tensor: # hartree/bohr^3
- [ -5.93996856E-05,   0.00000000E+00,   0.00000000E+00, ]
- [  0.00000000E+00,  -5.93996856E-05,   0.00000000E+00, ]
- [  0.00000000E+00,   0.00000000E+00,  -5.93996856E-05, ]
pressure_GPa:   1.7476E+00
xred      :
- [  0.0000E+00,   0.0000E+00,   0.0000E+00,  C]
- [  2.5000E-01,   2.5000E-01,   2.5000E-01,  C]
cartesian_forces: # hartree/bohr
- [ -6.53419381E-31,   2.63318258E-31,   3.60843539E-31, ]
- [  6.53419381E-31,  -2.63318258E-31,  -3.60843539E-31, ]
force_length_stats: {min:   7.91518447E-31, max:   7.91518447E-31, mean:   7.91518447E-31, }
...

 Integrated electronic density in atomic spheres:
 ------------------------------------------------
 Atom  Sphere_radius  Integrated_density
    1        2.00000          4.70880064
    2        2.00000          4.67088896
================================================================================

 ----iterations are completed or convergence reached----

 Mean square residual over all n,k,spin=   44.071E-19; max=  50.670E-17
 reduced coordinates (array xred) for    2 atoms
       0.000000000000      0.000000000000      0.000000000000
       0.250000000000      0.250000000000      0.250000000000
 rms dE/dt=  2.6388E-30; max dE/dt=  4.2073E-30; dE/dt below (all hartree)
    1      -0.000000000000      0.000000000000      0.000000000000
    2       0.000000000000     -0.000000000000      0.000000000000

 cartesian coordinates (angstrom) at end:
    1      0.00000000000000     0.00000000000000     0.00000000000000
    2      0.89175000000000     0.89175000000000     0.89175000000000

 cartesian forces (hartree/bohr) at end:
    1     -0.00000000000000     0.00000000000000     0.00000000000000
    2      0.00000000000000    -0.00000000000000    -0.00000000000000
 frms,max,avg= 4.5698339E-31 6.5341938E-31   0.000E+00  0.000E+00  0.000E+00 h/b

 cartesian forces (eV/Angstrom) at end:
    1     -0.00000000000000     0.00000000000000     0.00000000000000
    2      0.00000000000000    -0.00000000000000    -0.00000000000000
 frms,max,avg= 2.3499029E-29 3.3600173E-29   0.000E+00  0.000E+00  0.000E+00 e/A
 length scales=  6.740653116003  6.740653116003  6.740653116003 bohr
              =  3.567000000000  3.567000000000  3.567000000000 angstroms
 prteigrs : about to open file outdata_gs_DS1_EIG
 Fermi (or HOMO) energy (hartree) =   0.37815   Average Vxc (hartree)=  -0.49363
 Eigenvalues (hartree) for nkpt=  29  k points:
 kpt#   1, nband=  8, wtk=  0.00195, kpt=  0.0000  0.0000  0.0000 (reduced coord)
  -0.41145    0.37815    0.37815    0.37815    0.58482    0.58482    0.58482    0.86783
 prteigrs : prtvol=0 or 1, do not print more k-points.


--- !EnergyTerms
iteration_state     : {dtset: 1, }
comment             : Components of total free energy in Hartree
kinetic             :  8.47399484627343E+00
hartree             :  9.66227363085905E-01
xc                  : -4.33999589484641E+00
Ewald energy        : -1.27864121210521E+01
psp_core            :  9.01365312887264E-01
local_psp           : -4.68537723601366E+00
non_local_psp       : -5.67377654412668E-01
total_energy        : -1.20375753840782E+01
total_energy_eV     : -3.27559084519839E+02
band_energy         :  3.84155707148549E-01
...


 Cartesian components of stress tensor (hartree/bohr^3)
  sigma(1 1)= -5.93996856E-05  sigma(3 2)=  0.00000000E+00
  sigma(2 2)= -5.93996856E-05  sigma(3 1)=  0.00000000E+00
  sigma(3 3)= -5.93996856E-05  sigma(2 1)=  0.00000000E+00

-Cartesian components of stress tensor (GPa)         [Pressure=  1.7476E+00 GPa]
- sigma(1 1)= -1.74759879E+00  sigma(3 2)=  0.00000000E+00
- sigma(2 2)= -1.74759879E+00  sigma(3 1)=  0.00000000E+00
- sigma(3 3)= -1.74759879E+00  sigma(2 1)=  0.00000000E+00

================================================================================
== DATASET  2 ==================================================================
-   mpi_nproc: 128, omp_nthreads: -1 (-1 if OMP is not activated)


--- !DatasetInfo
iteration_state: {dtset: 2, }
dimensions: {natom: 2, nkpt: 29, mband: 5, nsppol: 1, nspinor: 1, nspden: 1, mpw: 941, }
cutoff_energies: {ecut:  40.0, pawecutdg:  -1.0, }
electrons: {nelect:   8.00000000E+00, charge:   0.00000000E+00, occopt:   1.00000000E+00, tsmear:   1.00000000E-02, }
meta: {optdriver: 6, }
...

 mkfilename : getden/=0, take file _DEN from output of DATASET   1.

 Exchange-correlation functional for the present dataset will be:
  GGA: Perdew-Burke-Ernzerhof functional - ixc=11
 Citation for XC functional:
  J.P.Perdew, K.Burke, M.Ernzerhof, PRL 77, 3865 (1996)

.Using single precision arithmetic; gwpc =  4

- Reading GS density from: outdata_gs_DS1_DEN



--------------------------------------------------------------------------------

 Total charge density [el/Bohr^3]
)     Maximum=    2.9605E-01  at reduced coord.    0.2000    0.2000    0.4333
)     Minimum=    1.3215E-02  at reduced coord.    0.5000    0.5000    0.5000
   Integrated=    8.0000E+00

 === KS gaps after direct diagonalization ===
 Indirect band gap semiconductor
 Fundamental gap:     4.189 (eV)
   VBM:    10.290 (eV) at k: [ 0.0000E+00,  0.0000E+00,  0.0000E+00]
   CBM:    14.479 (eV) at k: [ 3.7500E-01,  3.7500E-01,  0.0000E+00]
 Direct gap:         5.624 (eV) at k: [ 0.0000E+00,  0.0000E+00,  0.0000E+00]


== END DATASET(S) ==============================================================
================================================================================
  
 -outvars: echo values of variables after computation  --------
-          iomode1          1
-          iomode2          0
            acell      6.7406531160E+00  6.7406531160E+00  6.7406531160E+00 Bohr
              amu      1.20110000E+01
        autoparal1          1
        autoparal2          0
           bandpp1          4
           bandpp2          1
     densfor_pred1          6
     densfor_pred2          2
           diemac      1.20000000E+01
             ecut      4.00000000E+01 Hartree
           etotal1    -1.2037575384E+01
           etotal2     0.0000000000E+00
            fcart1    -6.5341938113E-31  2.6331825807E-31  3.6084353883E-31
                       6.5341938113E-31 -2.6331825807E-31 -3.6084353883E-31
            fcart2     0.0000000000E+00  0.0000000000E+00  0.0000000000E+00
                       0.0000000000E+00  0.0000000000E+00  0.0000000000E+00
-          fftalg         312
           getden1          0
           getden2         -1
           istwfk        1    0    0    0    1    0    0    0    0    0
                         0    0    0    0    0    0    0    0    0    0
                         1    0    0    0    0    0    0    0    0
              ixc          11
           jdtset        1    2
              kpt      0.00000000E+00  0.00000000E+00  0.00000000E+00
                       1.25000000E-01  0.00000000E+00  0.00000000E+00
                       2.50000000E-01  0.00000000E+00  0.00000000E+00
                       3.75000000E-01  0.00000000E+00  0.00000000E+00
                       5.00000000E-01  0.00000000E+00  0.00000000E+00
                       1.25000000E-01  1.25000000E-01  0.00000000E+00
                       2.50000000E-01  1.25000000E-01  0.00000000E+00
                       3.75000000E-01  1.25000000E-01  0.00000000E+00
                       5.00000000E-01  1.25000000E-01  0.00000000E+00
                      -3.75000000E-01  1.25000000E-01  0.00000000E+00
                      -2.50000000E-01  1.25000000E-01  0.00000000E+00
                      -1.25000000E-01  1.25000000E-01  0.00000000E+00
                       2.50000000E-01  2.50000000E-01  0.00000000E+00
                       3.75000000E-01  2.50000000E-01  0.00000000E+00
                       5.00000000E-01  2.50000000E-01  0.00000000E+00
                      -3.75000000E-01  2.50000000E-01  0.00000000E+00
                      -2.50000000E-01  2.50000000E-01  0.00000000E+00
                       3.75000000E-01  3.75000000E-01  0.00000000E+00
                       5.00000000E-01  3.75000000E-01  0.00000000E+00
                      -3.75000000E-01  3.75000000E-01  0.00000000E+00
                       5.00000000E-01  5.00000000E-01  0.00000000E+00
                       3.75000000E-01  2.50000000E-01  1.25000000E-01
                       5.00000000E-01  2.50000000E-01  1.25000000E-01
                      -3.75000000E-01  2.50000000E-01  1.25000000E-01
                       5.00000000E-01  3.75000000E-01  1.25000000E-01
                      -3.75000000E-01  3.75000000E-01  1.25000000E-01
                      -2.50000000E-01  3.75000000E-01  1.25000000E-01
                      -3.75000000E-01  5.00000000E-01  1.25000000E-01
                      -2.50000000E-01  5.00000000E-01  2.50000000E-01
         kptrlatt        8    0    0      0    8    0      0    0    8
          kptrlen      3.81308922E+01
P           mkmem           1
            natom           2
            nband1          8
            nband2          5
           ndtset           2
            ngfft          30      30      30
             nkpt          29
-          npband1          2
-          npband2          1
-           npfft1          2
-           npfft2          1
-        np_spkpt1         29
-        np_spkpt2          1
            nstep          50
             nsym          48
           ntypat           1
              occ1     2.000000  2.000000  2.000000  2.000000  0.000000  0.000000
                       0.000000  0.000000
              occ2     2.000000  2.000000  2.000000  2.000000  0.000000
        optdriver1          0
        optdriver2          6
           ortalg1         -2
           ortalg2          2
        paral_kgb1          1
        paral_kgb2          0
            rprim      0.0000000000E+00  5.0000000000E-01  5.0000000000E-01
                       5.0000000000E-01  0.0000000000E+00  5.0000000000E-01
                       5.0000000000E-01  5.0000000000E-01  0.0000000000E+00
          spgroup         227
           strten1    -5.9399685581E-05 -5.9399685581E-05 -5.9399685581E-05
                       0.0000000000E+00  0.0000000000E+00  0.0000000000E+00
           strten2     0.0000000000E+00  0.0000000000E+00  0.0000000000E+00
                       0.0000000000E+00  0.0000000000E+00  0.0000000000E+00
           symrel      1  0  0   0  1  0   0  0  1      -1  0  0   0 -1  0   0  0 -1
                       0 -1  1   0 -1  0   1 -1  0       0  1 -1   0  1  0  -1  1  0
                      -1  0  0  -1  0  1  -1  1  0       1  0  0   1  0 -1   1 -1  0
                       0  1 -1   1  0 -1   0  0 -1       0 -1  1  -1  0  1   0  0  1
                      -1  0  0  -1  1  0  -1  0  1       1  0  0   1 -1  0   1  0 -1
                       0 -1  1   1 -1  0   0 -1  0       0  1 -1  -1  1  0   0  1  0
                       1  0  0   0  0  1   0  1  0      -1  0  0   0  0 -1   0 -1  0
                       0  1 -1   0  0 -1   1  0 -1       0 -1  1   0  0  1  -1  0  1
                      -1  0  1  -1  1  0  -1  0  0       1  0 -1   1 -1  0   1  0  0
                       0 -1  0   1 -1  0   0 -1  1       0  1  0  -1  1  0   0  1 -1
                       1  0 -1   0  0 -1   0  1 -1      -1  0  1   0  0  1   0 -1  1
                       0  1  0   0  0  1   1  0  0       0 -1  0   0  0 -1  -1  0  0
                       1  0 -1   0  1 -1   0  0 -1      -1  0  1   0 -1  1   0  0  1
                       0 -1  0   0 -1  1   1 -1  0       0  1  0   0  1 -1  -1  1  0
                      -1  0  1  -1  0  0  -1  1  0       1  0 -1   1  0  0   1 -1  0
                       0  1  0   1  0  0   0  0  1       0 -1  0  -1  0  0   0  0 -1
                       0  0 -1   0  1 -1   1  0 -1       0  0  1   0 -1  1  -1  0  1
                       1 -1  0   0 -1  1   0 -1  0      -1  1  0   0  1 -1   0  1  0
                       0  0  1   1  0  0   0  1  0       0  0 -1  -1  0  0   0 -1  0
                      -1  1  0  -1  0  0  -1  0  1       1 -1  0   1  0  0   1  0 -1
                       0  0  1   0  1  0   1  0  0       0  0 -1   0 -1  0  -1  0  0
                       1 -1  0   0 -1  0   0 -1  1      -1  1  0   0  1  0   0  1 -1
                       0  0 -1   1  0 -1   0  1 -1       0  0  1  -1  0  1   0 -1  1
                      -1  1  0  -1  0  1  -1  0  0       1 -1  0   1  0 -1   1  0  0
           timopt          -1
            tnons      0.0000000  0.0000000  0.0000000     0.2500000  0.2500000  0.2500000
                       0.0000000  0.0000000  0.0000000     0.2500000  0.2500000  0.2500000
                       0.0000000  0.0000000  0.0000000     0.2500000  0.2500000  0.2500000
                       0.0000000  0.0000000  0.0000000     0.2500000  0.2500000  0.2500000
                       0.0000000  0.0000000  0.0000000     0.2500000  0.2500000  0.2500000
                       0.0000000  0.0000000  0.0000000     0.2500000  0.2500000  0.2500000
                       0.0000000  0.0000000  0.0000000     0.2500000  0.2500000  0.2500000
                       0.0000000  0.0000000  0.0000000     0.2500000  0.2500000  0.2500000
                       0.0000000  0.0000000  0.0000000     0.2500000  0.2500000  0.2500000
                       0.0000000  0.0000000  0.0000000     0.2500000  0.2500000  0.2500000
                       0.0000000  0.0000000  0.0000000     0.2500000  0.2500000  0.2500000
                       0.0000000  0.0000000  0.0000000     0.2500000  0.2500000  0.2500000
                       0.0000000  0.0000000  0.0000000     0.2500000  0.2500000  0.2500000
                       0.0000000  0.0000000  0.0000000     0.2500000  0.2500000  0.2500000
                       0.0000000  0.0000000  0.0000000     0.2500000  0.2500000  0.2500000
                       0.0000000  0.0000000  0.0000000     0.2500000  0.2500000  0.2500000
                       0.0000000  0.0000000  0.0000000     0.2500000  0.2500000  0.2500000
                       0.0000000  0.0000000  0.0000000     0.2500000  0.2500000  0.2500000
                       0.0000000  0.0000000  0.0000000     0.2500000  0.2500000  0.2500000
                       0.0000000  0.0000000  0.0000000     0.2500000  0.2500000  0.2500000
                       0.0000000  0.0000000  0.0000000     0.2500000  0.2500000  0.2500000
                       0.0000000  0.0000000  0.0000000     0.2500000  0.2500000  0.2500000
                       0.0000000  0.0000000  0.0000000     0.2500000  0.2500000  0.2500000
                       0.0000000  0.0000000  0.0000000     0.2500000  0.2500000  0.2500000
           tolvrs1     1.00000000E-08
           tolvrs2     0.00000000E+00
            typat      1  1
         wfoptalg1        114
         wfoptalg2          0
              wtk        0.00195    0.01563    0.01563    0.01563    0.00781    0.01172
                         0.04688    0.04688    0.04688    0.04688    0.04688    0.02344
                         0.01172    0.04688    0.04688    0.04688    0.02344    0.01172
                         0.04688    0.02344    0.00586    0.04688    0.09375    0.04688
                         0.04688    0.09375    0.04688    0.02344    0.01172
           xangst      0.0000000000E+00  0.0000000000E+00  0.0000000000E+00
                       8.9175000000E-01  8.9175000000E-01  8.9175000000E-01
            xcart      0.0000000000E+00  0.0000000000E+00  0.0000000000E+00
                       1.6851632790E+00  1.6851632790E+00  1.6851632790E+00
             xred      0.0000000000E+00  0.0000000000E+00  0.0000000000E+00
                       2.5000000000E-01  2.5000000000E-01  2.5000000000E-01
            znucl        6.00000

================================================================================

 Test the timer : 
  a combined call timab(*,1,tsec) + timab(*,2,tsec) is 
- CPU time =    5.9454E-07 sec,    Wall time =    5.9459E-07 sec

- Total cpu        time (s,m,h):        351.4        5.86      0.098
- Total wall clock time (s,m,h):        401.2        6.69      0.111
-
- For major independent code sections, cpu and wall times (sec),
-  as well as % of the time and number of calls for node 0
-
-<BEGIN_TIMER mpi_nprocs = 116, omp_nthreads = 1, mpi_rank = 0>
- cpu_time =            2.8, wall_time =            3.5
-
- routine                            cpu     %          wall     %      number of calls Gflops    Speedup Efficacity
-                                                                        (-1=no count)
- ugb_from_diago                    0.481   0.1         0.538   0.1              1      -1.00        0.89       0.89
- pspini                            0.257   0.1         0.258   0.1              2      -1.00        1.00       1.00
- abinit(2)                         0.154   0.0         0.161   0.0              1      -1.00        0.96       0.96
- fourwf%(pot)                      0.147   0.0         0.148   0.0             99      -1.00        1.00       1.00
- timing timab                      0.116   0.0         0.116   0.0             14      -1.00        1.00       1.00
- fourdp                            0.049   0.0         0.049   0.0             99      -1.00        1.00       1.00
- invars2                           0.045   0.0         0.045   0.0              2      -1.00        1.00       1.00
- vtorho(MPI)                       0.027   0.0         0.027   0.0              6      -1.00        0.99       0.99
- xc:pot/=fourdp                    0.021   0.0         0.022   0.0              8      -1.00        1.00       1.00
- mkcore                            0.021   0.0         0.021   0.0              4      -1.00        1.00       1.00
- ewald                             0.020   0.0         0.020   0.0              2      -1.00        1.00       1.00
- nonlop(apply)                     0.017   0.0         0.017   0.0             99      -1.00        1.00       1.00
- stress                            0.015   0.0         0.015   0.0              1      -1.00        1.00       1.00
- prep_bandfft_tabs                 0.014   0.0         0.014   0.0              2      -1.00        0.99       0.99
- kpgsph                            0.007   0.0         0.007   0.0            119      -1.00        0.99       0.99
- ewald2 (+vdw_dftd)                0.007   0.0         0.007   0.0              1      -1.00        1.00       1.00
- forces                            0.007   0.0         0.007   0.0              1      -1.00        1.00       1.00
- vtowfk(contrib)                   0.006   0.0         0.006   0.0              6      -1.00        0.99       0.99
- newkpt(excl. rwwf   )             0.004   0.0         0.004   0.0             -1      -1.00        0.99       0.99
- symrhg(no FFT)                    0.004   0.0         0.004   0.0              6      -1.00        1.00       1.00
- getghc-other                      0.002   0.0         0.002   0.0             -1      -1.00        1.02       1.02
- setsym                            0.002   0.0         0.002   0.0              1      -1.00        1.00       1.00
- scfcv-scprqt                      0.001   0.0         0.001   0.0              6      -1.00        0.89       0.89
- nonlop(forces)                    0.001   0.0         0.001   0.0              8      -1.00        0.99       0.99
- others (131)                      0.001   0.0         0.001   0.0             -1      -1.00        1.00       1.00
-<END_TIMER>
-
- subtotal                          1.426   0.4         1.492   0.4                                  0.96       0.96

- For major independent code sections, cpu and wall times (sec),
- as well as % of the total time and number of calls 

-<BEGIN_TIMER mpi_nprocs = 116, omp_nthreads = 1, mpi_rank = world>
- cpu_time =         351.4, wall_time =         401.2
-
- routine                            cpu     %          wall     %      number of calls Gflops    Speedup Efficacity
-                                                                        (-1=no count)
- ugb_from_diago                   56.130  16.0        64.482  16.1            116      -1.00        0.87       0.87
- pspini                           29.813   8.5        29.967   7.5            232      -1.00        0.99       0.99
- fourwf%(pot)                     16.725   4.8        16.741   4.2          11396      -1.00        1.00       1.00
- timing timab                     13.309   3.8        13.311   3.3           1624      -1.00        1.00       1.00
- abinit(2)                         7.454   2.1         7.596   1.9            116      -1.00        0.98       0.98
- fourdp                            5.407   1.5         5.421   1.4          11484      -1.00        1.00       1.00
- invars2                           5.196   1.5         5.196   1.3            232      -1.00        1.00       1.00
- xc:pot/=fourdp                    2.717   0.8         2.734   0.7            928      -1.00        0.99       0.99
- mkcore                            2.418   0.7         2.418   0.6            464      -1.00        1.00       1.00
- ewald                             2.288   0.7         2.290   0.6            232      -1.00        1.00       1.00
- nonlop(apply)                     1.873   0.5         1.881   0.5          11396      -1.00        1.00       1.00
- vtorho(MPI)                       1.838   0.5         1.850   0.5            696      -1.00        0.99       0.99
- stress                            1.662   0.5         1.663   0.4            116      -1.00        1.00       1.00
- ewald2 (+vdw_dftd)                0.829   0.2         0.830   0.2            116      -1.00        1.00       1.00
- forces                            0.797   0.2         0.801   0.2            116      -1.00        1.00       1.00
- kpgsph                            0.598   0.2         0.599   0.1          13804      -1.00        1.00       1.00
- prep_bandfft_tabs                 0.573   0.2         0.578   0.1            232      -1.00        0.99       0.99
- vtowfk(contrib)                   0.395   0.1         0.396   0.1            696      -1.00        1.00       1.00
- symrhg(no FFT)                    0.378   0.1         0.379   0.1            696      -1.00        1.00       1.00
- newkpt(excl. rwwf   )             0.377   0.1         0.378   0.1           -116      -1.00        1.00       1.00
- scfcv-scprqt                      0.365   0.1         0.369   0.1            696      -1.00        0.99       0.99
- getghc-other                      0.256   0.1         0.252   0.1           -116      -1.00        1.02       1.02
- setsym                            0.229   0.1         0.229   0.1            116      -1.00        1.00       1.00
- nonlop(forces)                    0.070   0.0         0.071   0.0            928      -1.00        1.00       1.00
- vtowfk(ssdiag)                    0.060   0.0         0.062   0.0           -116      -1.00        0.96       0.96
- vtowfk  (1)                       0.044   0.0         0.046   0.0            696      -1.00        0.95       0.95
- mkffnl                            0.039   0.0         0.040   0.0            348      -1.00        0.96       0.96
- inwffil(excl. calls)              0.015   0.0         0.016   0.0            116      -1.00        0.99       0.99
- others (127)                      0.000   0.0         0.000   0.0             -1      -1.00        0.00       0.00
-<END_TIMER>

- subtotal                        151.853  43.2       160.592  40.0                                  0.95       0.95

 Partitioning of abinit
- abinit                          351.403 100.0       401.158 100.0            116                   0.88       0.88
 
- abinit(1)                        19.342   5.5        23.312   5.8            116                   0.83       0.83
- abinit(2)                         7.454   2.1         7.596   1.9            116                   0.98       0.98
- indefo+macroin+invars2m           5.208   1.5         5.209   1.3            116                   1.00       1.00
- abinit(4)                        29.380   8.4        31.377   7.8            116                   0.94       0.94
- abinit(5)                        16.725   4.8        16.757   4.2            116                   1.00       1.00
- driver                          284.999  81.1       329.045  82.0            116                   0.87       0.87
- timana(1)                         0.106   0.0         0.110   0.0            116                   0.97       0.97
- timing timab                     13.309   3.8        13.311   3.3           1624                   1.00       1.00

- subtotal                        351.403 100.0       401.158 100.0                                  0.88       0.88

 Partitioning of driver
- driver                          284.999  81.1       329.045  82.0            116                   0.87       0.87
 
- driver(bef. loop dtset)           0.085   0.0         0.091   0.0            116                   0.94       0.94
- driver(bef. select case)          7.258   2.1        17.850   4.4            232                   0.41       0.41
- (other)                         277.566  79.0       311.009  77.5             -1                   0.89       0.89

- subtotal                        284.999  81.1       329.045  82.0                                  0.87       0.87

 Partitioning of gstateimg+gstate
- gstateimg                       118.337  33.7       140.141  34.9            116                   0.84       0.84
 
- gstate(1)                         2.552   0.7         2.629   0.7            232                   0.97       0.97
- gstate(pspini)                   29.827   8.5        29.981   7.5            116                   0.99       0.99
- gstate(init rhor rhog)            0.505   0.1         0.509   0.1            116                   0.99       0.99
- gstate(init history)              0.110   0.0         0.110   0.0            116                   1.00       1.00
- gstate(...scfcv)                 42.973  12.2        61.603  15.4            116                   0.70       0.70
- gstate(prtwf)                    41.643  11.9        44.549  11.1            116                   0.93       0.93
- gstate(clnup1)                    0.386   0.1         0.409   0.1            116                   0.94       0.94

- subtotal                        118.285  33.7       140.088  34.9                                  0.84       0.84

 Partitioning of scfcv_core
- scfcv_core                       42.475  12.1        61.049  15.2            116                   0.70       0.70
 
- scfcv_core(1)                     0.434   0.1         0.448   0.1            116                   0.97       0.97
- scfcv_core(iniloop, setv          2.944   0.8         2.958   0.7            696                   1.00       1.00
- scfcv_core(vtorho(f))            23.794   6.8        34.505   8.6            696                   0.69       0.69
- scfcv-scprqt                      0.365   0.1         0.369   0.1            696                   0.99       0.99
- scfcv_core(rhotov)                4.313   1.2         4.315   1.1            696                   1.00       1.00
- scfcv_core(qui loop)              0.147   0.0         0.147   0.0            696                   1.00       1.00
- scfcv_core(mix pot)               6.463   1.8        14.119   3.5            580                   0.46       0.46
- scfcv_core(just after sc          0.207   0.1         0.260   0.1            116                   0.80       0.80
- scfcv_core(afterscfloop)          3.239   0.9         3.300   0.8            116                   0.98       0.98
- scfcv_core(outscfcv)              0.490   0.1         0.546   0.1            116                   0.90       0.90

- subtotal                         42.475  12.1        61.049  15.2                                  0.70       0.70

 Partitioning of rhotov
- rhotov                            4.291   1.2         4.292   1.1            696                   1.00       1.00
 
- rhotov(rhotoxc)                   3.747   1.1         3.748   0.9            696                   1.00       1.00
- rhotov(other)                     0.087   0.0         0.087   0.0            696                   0.99       0.99
- (other)                           0.427   0.1         0.427   0.1             -1                   1.00       1.00

- subtotal                          4.291   1.2         4.292   1.1                                  1.00       1.00

 Partitioning of vtorho
- vtorho                           23.765   6.8        34.473   8.6            696                   0.69       0.69
 
- vtorho(bef. spin loop)            0.145   0.0         0.153   0.0            696                   0.95       0.95
- vtorho(bef. kpt  loop)            0.088   0.0         0.090   0.0            696                   0.97       0.97
- vtorho(bef. vtowfk)               0.576   0.2         0.585   0.1            696                   0.98       0.98
- vtowfk                           19.223   5.5        29.868   7.4            696                   0.64       0.64
- vtorho(aft. kpt loop)             0.466   0.1         0.467   0.1            696                   1.00       1.00
- vtorho(MPI)                       1.838   0.5         1.850   0.5            696                   0.99       0.99
- vtorho(highest occ. eig)          0.108   0.0         0.109   0.0            696                   0.99       0.99
- vtorho(mkrho 2)                   1.258   0.4         1.288   0.3           1392                   0.98       0.98

- subtotal                         23.765   6.8        34.473   8.6                                  0.69       0.69

 Partitioning of vtowfk
- vtowfk                           19.223   5.5        29.868   7.4            696                   0.64       0.64
 
- vtowfk(2)                        18.784   5.3        29.426   7.3           -116                   0.64       0.64
- prep_fourwf%vtow                  0.368   0.1         0.368   0.1            696                   1.00       1.00

- subtotal                         19.223   5.5        29.868   7.4                                  0.64       0.64

 Partitioning of getghc
- getghc                           18.854   5.4        18.874   4.7          11396                   1.00       1.00
 
- fourwf%getghc                    16.725   4.8        16.741   4.2          11396                   1.00       1.00
- nonlop%getghc                     1.873   0.5         1.881   0.5          11396                   1.00       1.00
- getghc-other                      0.256   0.1         0.252   0.1           -116                   1.02       1.02

- subtotal                         18.854   5.4        18.874   4.7                                  1.00       1.00

 Partitioning of fourwf (upwards partitioning)
- fourwf                           17.066   4.9        17.083   4.3          12788                   1.00       1.00
 
- fourwf%getghc                    16.725   4.8        16.741   4.2          11396                   1.00       1.00
- fourwf%prep_four                  0.342   0.1         0.342   0.1           1392                   1.00       1.00

- subtotal                         17.066   4.9        17.083   4.3                                  1.00       1.00

 Partitioning of prep_getghc
- prep_getghc                       7.537   2.1         7.558   1.9           4640                   1.00       1.00
 
- prep_getghc(before if)            0.129   0.0         0.132   0.0           4640                   0.98       0.98
- prep_getghc(alltoall)             0.631   0.2         0.633   0.2           9280                   1.00       1.00
- prep_getghc(getghc - 2 )          6.661   1.9         6.677   1.7           4640                   1.00       1.00

- subtotal                          7.537   2.1         7.558   1.9                                  1.00       1.00

 Partitioning of prep_fourwf
- prep_fourwf                       0.368   0.1         0.368   0.1            696                   1.00       1.00
 
- fourwf%prep_four                  0.342   0.1         0.342   0.1           1392                   1.00       1.00

- subtotal                          0.356   0.1         0.356   0.1                                  1.00       1.00

 Partitioning of prep_nonlop
- prep_nonlop                       0.321   0.1         0.323   0.1           1044                   0.99       0.99
 
- nonlop%prep_nonl%forstrn          0.200   0.1         0.202   0.1            116                   0.99       0.99
- (other)                           0.094   0.0         0.093   0.0             -1                   1.00       1.00

- subtotal                          0.321   0.1         0.323   0.1                                  0.99       0.99

 Partitioning of inwffil
- inwffil                           0.413   0.1         0.414   0.1            116                   1.00       1.00
 
- inwffil(call newkpt)              0.397   0.1         0.398   0.1            116                   1.00       1.00

- subtotal                          0.413   0.1         0.414   0.1                                  1.00       1.00

 Partitioning of newkpt
- newkpt                            0.397   0.1         0.398   0.1            116                   1.00       1.00
 
- newkpt(after loop   )             0.301   0.1         0.301   0.1            116                   1.00       1.00

- subtotal                          0.377   0.1         0.378   0.1                                  1.00       1.00

 Partitioning of newvtr
- newvtr                            6.357   1.8        13.992   3.5            580                   0.45       0.45
 
- newvtr(bef. prcref_PMA)           0.081   0.0         0.087   0.0            580                   0.93       0.93
- newvtr(call prcref_PMA)           0.576   0.2         0.577   0.1            580                   1.00       1.00
- newvtr(aft. prcref_PMA)           5.399   1.5        13.027   3.2            580                   0.41       0.41
- newvtr(mean potential)            0.219   0.1         0.219   0.1            580                   1.00       1.00

- subtotal                          6.357   1.8        13.992   3.5                                  0.45       0.45

 Partitioning of  fourdp (upwards partitioning)
- fourdp                            5.407   1.5         5.421   1.4          11484                   1.00       1.00
 
- fourdp%(other)                    5.407   1.5         5.421   1.4          11484                   1.00       1.00

- subtotal                          5.407   1.5         5.421   1.4                                  1.00       1.00

 Partitioning of afterscfloop
- afterscfloop                      3.152   0.9         3.195   0.8            116                   0.99       0.99
 
- afterscfloop(forstr)              3.089   0.9         3.129   0.8            116                   0.99       0.99

- subtotal                          3.151   0.9         3.195   0.8                                  0.99       0.99

 Partitioning of forstr
- forstr                            3.019   0.9         3.046   0.8            116                   0.99       0.99
 
- forstr(forstrnps)                 0.442   0.1         0.445   0.1            116                   0.99       0.99
- forstr(forces)                    0.905   0.3         0.928   0.2            116                   0.98       0.98
- forstr(stress)                    1.672   0.5         1.673   0.4            116                   1.00       1.00

- subtotal                          3.019   0.9         3.045   0.8                                  0.99       0.99

 Partitioning of forstrnps
- forstrnps                         0.433   0.1         0.436   0.1            116                   0.99       0.99
 
- forstrnps(bef.loop band)          0.136   0.0         0.137   0.0            116                   1.00       1.00
- forstrnps(nonlop+prep_ba          0.212   0.1         0.213   0.1            116                   0.99       0.99

- subtotal                          0.433   0.1         0.436   0.1                                  0.99       0.99

 Partitioning of outscfcv
- outscfcv                          0.459   0.1         0.511   0.1            116                   0.90       0.90
 
- outscfcv(preparation)             0.107   0.0         0.113   0.0            116                   0.95       0.95
- outscfcv(calcdenmagsph)           0.243   0.1         0.248   0.1            116                   0.98       0.98

- subtotal                          0.436   0.1         0.488   0.1                                  0.89       0.89

 Partitioning of lobpcgwf2 core engine
- lobpcgwf2                        18.724   5.3        29.364   7.3            928                   0.64       0.64
 
- lobpcg_init                       0.079   0.0         0.081   0.0            928                   0.97       0.97
- lobpcg_run                       18.413   5.2        29.044   7.2            928                   0.63       0.63
- lobpcg_Bortho                     5.405   1.5        11.851   3.0           4640                   0.46       0.46
- lobpcg_RayleighRitz               5.117   1.5         9.277   2.3           4640                   0.55       0.55
- lobpcg_maxResidu                  0.138   0.0         0.140   0.0           8352                   0.99       0.99
- lobpcg_run@getAX_BX               7.623   2.2         7.646   1.9           4640                   1.00       1.00
- lobpcg_RayleighRitz@hegv          4.071   1.2         8.231   2.1           4640                   0.49       0.49

- subtotal                         40.856  11.6        66.281  16.5                                  0.62       0.62

 Partitioning of low-level xgBlock type
- xgBlock_potrf                     4.486   1.3        10.931   2.7           4640                   0.41       0.41
 
- xgBlock_trsm                      0.560   0.2         0.562   0.1          13920                   1.00       1.00
- xgBlock_gemm                      1.244   0.4         1.248   0.3          51040                   1.00       1.00
- xgBlock_hegvx                     3.993   1.1         8.155   2.0           3712                   0.49       0.49

- subtotal                          5.931   1.7        10.100   2.5                                  0.59       0.59
-
-Synchronisation (=leave_test) and MPI calls 
- communic.MPI                      3.658   1.0         3.677   0.9           4640                   0.99       0.99
-
- forstrnps:synchr                  0.053   0.0         0.053   0.0            232                   1.00       1.00
- alltoall%back_wf                  0.086   0.0         0.084   0.0          19952                   1.03       1.03
- alltoall%forw_wf                  0.042   0.0         0.039   0.0          18560                   1.07       1.07
- subtotal                          0.181   0.1         0.176   0.0                                  1.03       1.03

 Additional information
- timana(1)                         0.106   0.0         0.110   0.0            116                   0.97       0.97
- total timab                      13.509   3.8        13.511   3.4       22910915                   1.00       1.00
- fourwf                           17.066   4.9        17.083   4.3          12788                   1.00       1.00
- mklocl(2)                         0.065   0.0         0.065   0.0            116                   1.00       1.00
- nonlop(total)                     2.144   0.6         2.154   0.5          12440                   1.00       1.00
- xc:fourdp                         2.977   0.8         2.970   0.7           7424                   1.00       1.00
- read_rho                         31.922   9.1        31.960   8.0            116                   1.00       1.00

 timana : in multi dataset mode, the more detailed analysis is not done.

================================================================================

 Suggested references for the acknowledgment of ABINIT usage.

 The users of ABINIT have little formal obligations with respect to the ABINIT group
 (those specified in the GNU General Public License, http://www.gnu.org/copyleft/gpl.txt).
 However, it is common practice in the scientific literature,
 to acknowledge the efforts of people that have made the research possible.
 In this spirit, please find below suggested citations of work written by ABINIT developers,
 corresponding to implementations inside of ABINIT that you have used in the present run.
 Note also that it will be of great value to readers of publications presenting these results,
 to read papers enabling them to understand the theoretical formalism and details
 of the ABINIT implementation.
 For information on why they are suggested, see also https://docs.abinit.org/theory/acknowledgments.
-
- [1] Large scale ab initio calculations based on three levels of parallelization
- F. Bottin, S. Leroux, A. Knyazev, G. Zerah, Comput. Mat. Science 42, 329, (2008).
- Comment: in case LOBPCG algorithm is used (wfoptalg=4/14/114).
- Strong suggestion to cite this paper in your publications.
- This paper is also available at http://www.arxiv.org/abs/0707.3405
- DOI and bibtex: see https://docs.abinit.org/theory/bibliography/#bottin2008
-
- [2] The Abinit project: Impact, environment and recent developments.
- Computer Phys. Comm. 248, 107042 (2020).
- X.Gonze, B. Amadon, G. Antonius, F.Arnardi, L.Baguet, J.-M.Beuken,
- J.Bieder, F.Bottin, J.Bouchet, E.Bousquet, N.Brouwer, F.Bruneval,
- G.Brunin, T.Cavignac, J.-B. Charraud, Wei Chen, M.Cote, S.Cottenier,
- J.Denier, G.Geneste, Ph.Ghosez, M.Giantomassi, Y.Gillet, O.Gingras,
- D.R.Hamann, G.Hautier, Xu He, N.Helbig, N.Holzwarth, Y.Jia, F.Jollet,
- W.Lafargue-Dit-Hauret, K.Lejaeghere, M.A.L.Marques, A.Martin, C.Martins,
- H.P.C. Miranda, F.Naccarato, K. Persson, G.Petretto, V.Planes, Y.Pouillon,
- S.Prokhorenko, F.Ricci, G.-M.Rignanese, A.H.Romero, M.M.Schmitt, M.Torrent,
- M.J.van Setten, B.Van Troeye, M.J.Verstraete, G.Zerah and J.W.Zwanzig
- Comment: the fifth generic paper describing the ABINIT project.
- Note that a version of this paper, that is not formatted for Computer Phys. Comm. 
- is available at https://www.abinit.org/sites/default/files/ABINIT20.pdf .
- The licence allows the authors to put it on the Web.
- DOI and bibtex: see https://docs.abinit.org/theory/bibliography/#gonze2020
-
- [3] Optimized norm-conserving Vanderbilt pseudopotentials.
- D.R. Hamann, Phys. Rev. B 88, 085117 (2013).
- Comment: Some pseudopotential generated using the ONCVPSP code were used.
- DOI and bibtex: see https://docs.abinit.org/theory/bibliography/#hamann2013
-
- [4] ABINIT: Overview, and focus on selected capabilities
- J. Chem. Phys. 152, 124102 (2020).
- A. Romero, D.C. Allan, B. Amadon, G. Antonius, T. Applencourt, L.Baguet,
- J.Bieder, F.Bottin, J.Bouchet, E.Bousquet, F.Bruneval,
- G.Brunin, D.Caliste, M.Cote,
- J.Denier, C. Dreyer, Ph.Ghosez, M.Giantomassi, Y.Gillet, O.Gingras,
- D.R.Hamann, G.Hautier, F.Jollet, G. Jomard,
- A.Martin, 
- H.P.C. Miranda, F.Naccarato, G.Petretto, N.A. Pike, V.Planes,
- S.Prokhorenko, T. Rangel, F.Ricci, G.-M.Rignanese, M.Royo, M.Stengel, M.Torrent,
- M.J.van Setten, B.Van Troeye, M.J.Verstraete, J.Wiktor, J.W.Zwanziger, and X.Gonze.
- Comment: a global overview of ABINIT, with focus on selected capabilities .
- Note that a version of this paper, that is not formatted for J. Chem. Phys 
- is available at https://www.abinit.org/sites/default/files/ABINIT20_JPC.pdf .
- The licence allows the authors to put it on the Web.
- DOI and bibtex: see https://docs.abinit.org/theory/bibliography/#romero2020
-
- [5] Recent developments in the ABINIT software package.
- Computer Phys. Comm. 205, 106 (2016).
- X.Gonze, F.Jollet, F.Abreu Araujo, D.Adams, B.Amadon, T.Applencourt,
- C.Audouze, J.-M.Beuken, J.Bieder, A.Bokhanchuk, E.Bousquet, F.Bruneval
- D.Caliste, M.Cote, F.Dahm, F.Da Pieve, M.Delaveau, M.Di Gennaro,
- B.Dorado, C.Espejo, G.Geneste, L.Genovese, A.Gerossier, M.Giantomassi,
- Y.Gillet, D.R.Hamann, L.He, G.Jomard, J.Laflamme Janssen, S.Le Roux,
- A.Levitt, A.Lherbier, F.Liu, I.Lukacevic, A.Martin, C.Martins,
- M.J.T.Oliveira, S.Ponce, Y.Pouillon, T.Rangel, G.-M.Rignanese,
- A.H.Romero, B.Rousseau, O.Rubel, A.A.Shukri, M.Stankovski, M.Torrent,
- M.J.Van Setten, B.Van Troeye, M.J.Verstraete, D.Waroquier, J.Wiktor,
- B.Xu, A.Zhou, J.W.Zwanziger.
- Comment: the fourth generic paper describing the ABINIT project.
- Note that a version of this paper, that is not formatted for Computer Phys. Comm. 
- is available at https://www.abinit.org/sites/default/files/ABINIT16.pdf .
- The licence allows the authors to put it on the Web.
- DOI and bibtex: see https://docs.abinit.org/theory/bibliography/#gonze2016
-
- Proc.   0 individual time (sec): cpu=          2.8  wall=          3.5

================================================================================

 Calculation completed.
.Delivered   0 WARNINGs and   3 COMMENTs to log file.
+Overall time at end (sec) : cpu=        397.4  wall=        448.3
