
.Version 9.9.2 of ABINIT 
.(MPI version, prepared for a x86_64_linux_gnu11.2 computer) 

.Copyright (C) 1998-2022 ABINIT group . 
 ABINIT comes with ABSOLUTELY NO WARRANTY.
 It is free software, and you are welcome to redistribute it
 under certain conditions (GNU General Public License,
 see ~abinit/COPYING or http://www.gnu.org/copyleft/gpl.txt).

 ABINIT is a project of the Universite Catholique de Louvain,
 Corning Inc. and other collaborators, see ~abinit/doc/developers/contributors.txt .
 Please read https://docs.abinit.org/theory/acknowledgments for suggested
 acknowledgments of the ABINIT effort.
 For more information, see https://www.abinit.org .

.Starting date : Sat 18 Feb 2023.
- ( at 22h22 )
  
- input  file    -> run.abi
- output file    -> run.abo
- root for input  files -> ../indata_gs
- root for output files -> outdata_gwr


 DATASET    1 : space group F-4 3 m (#216); Bravais cF (face-center cubic)
================================================================================
 Values of the parameters that define the memory need for DATASET  1.
     intxc =       0    ionmov =       0      iscf =       7    lmnmax =       6
     lnmax =       6     mgfft =      36  mpssoang =       3    mqgrid =    3001
     natom =       2  nloc_mem =       1    nspden =       1   nspinor =       1
    nsppol =       1      nsym =      24    n1xccc =    2501    ntypat =       2
    occopt =       1   xclevel =       2
-    mband =         480        mffmem =           1         mkmem =           1
       mpw =        1700          nfft =       46656          nkpt =          29
================================================================================
P This job should need less than                      35.897 Mbytes of memory.
  Rough estimation (10% accuracy) of disk space for files :
_ WF disk file :    361.086 Mbytes ; DEN or POT disk file :      0.358 Mbytes.
================================================================================


 DATASET    2 : space group F-4 3 m (#216); Bravais cF (face-center cubic)
================================================================================
 Values of the parameters that define the memory need for DATASET  2.
     intxc =       0    ionmov =       0      iscf =       7    lmnmax =       6
     lnmax =       6     mgfft =      36  mpssoang =       3    mqgrid =    3001
     natom =       2  nloc_mem =       1    nspden =       1   nspinor =       1
    nsppol =       1      nsym =      24    n1xccc =    2501    ntypat =       2
    occopt =       1   xclevel =       2
-    mband =         480        mffmem =           1         mkmem =           1
       mpw =        1700          nfft =       46656          nkpt =          29
================================================================================
P This job should need less than                      35.897 Mbytes of memory.
  Rough estimation (10% accuracy) of disk space for files :
_ WF disk file :    361.086 Mbytes ; DEN or POT disk file :      0.358 Mbytes.
================================================================================


 DATASET    3 : space group F-4 3 m (#216); Bravais cF (face-center cubic)
================================================================================
 Values of the parameters that define the memory need for DATASET  3.
     intxc =       0    ionmov =       0      iscf =       7    lmnmax =       6
     lnmax =       6     mgfft =      36  mpssoang =       3    mqgrid =    3001
     natom =       2  nloc_mem =       1    nspden =       1   nspinor =       1
    nsppol =       1      nsym =      24    n1xccc =    2501    ntypat =       2
    occopt =       1   xclevel =       2
-    mband =         480        mffmem =           1         mkmem =           1
       mpw =        1700          nfft =       46656          nkpt =          29
================================================================================
P This job should need less than                      35.897 Mbytes of memory.
  Rough estimation (10% accuracy) of disk space for files :
_ WF disk file :    361.086 Mbytes ; DEN or POT disk file :      0.358 Mbytes.
================================================================================


 DATASET    4 : space group F-4 3 m (#216); Bravais cF (face-center cubic)
================================================================================
 Values of the parameters that define the memory need for DATASET  4.
     intxc =       0    ionmov =       0      iscf =       7    lmnmax =       6
     lnmax =       6     mgfft =      36  mpssoang =       3    mqgrid =    3001
     natom =       2  nloc_mem =       1    nspden =       1   nspinor =       1
    nsppol =       1      nsym =      24    n1xccc =    2501    ntypat =       2
    occopt =       1   xclevel =       2
-    mband =         480        mffmem =           1         mkmem =           1
       mpw =        1700          nfft =       46656          nkpt =          29
================================================================================
P This job should need less than                      35.897 Mbytes of memory.
  Rough estimation (10% accuracy) of disk space for files :
_ WF disk file :    361.086 Mbytes ; DEN or POT disk file :      0.358 Mbytes.
================================================================================


 DATASET    5 : space group F-4 3 m (#216); Bravais cF (face-center cubic)
================================================================================
 Values of the parameters that define the memory need for DATASET  5.
     intxc =       0    ionmov =       0      iscf =       7    lmnmax =       6
     lnmax =       6     mgfft =      36  mpssoang =       3    mqgrid =    3001
     natom =       2  nloc_mem =       1    nspden =       1   nspinor =       1
    nsppol =       1      nsym =      24    n1xccc =    2501    ntypat =       2
    occopt =       1   xclevel =       2
-    mband =         480        mffmem =           1         mkmem =           1
       mpw =        1700          nfft =       46656          nkpt =          29
================================================================================
P This job should need less than                      35.897 Mbytes of memory.
  Rough estimation (10% accuracy) of disk space for files :
_ WF disk file :    361.086 Mbytes ; DEN or POT disk file :      0.358 Mbytes.
================================================================================


 DATASET    6 : space group F-4 3 m (#216); Bravais cF (face-center cubic)
================================================================================
 Values of the parameters that define the memory need for DATASET  6.
     intxc =       0    ionmov =       0      iscf =       7    lmnmax =       6
     lnmax =       6     mgfft =      36  mpssoang =       3    mqgrid =    3001
     natom =       2  nloc_mem =       1    nspden =       1   nspinor =       1
    nsppol =       1      nsym =      24    n1xccc =    2501    ntypat =       2
    occopt =       1   xclevel =       2
-    mband =         480        mffmem =           1         mkmem =           1
       mpw =        1700          nfft =       46656          nkpt =          29
================================================================================
P This job should need less than                      35.897 Mbytes of memory.
  Rough estimation (10% accuracy) of disk space for files :
_ WF disk file :    361.086 Mbytes ; DEN or POT disk file :      0.358 Mbytes.
================================================================================


 DATASET    7 : space group F-4 3 m (#216); Bravais cF (face-center cubic)
================================================================================
 Values of the parameters that define the memory need for DATASET  7.
     intxc =       0    ionmov =       0      iscf =       7    lmnmax =       6
     lnmax =       6     mgfft =      36  mpssoang =       3    mqgrid =    3001
     natom =       2  nloc_mem =       1    nspden =       1   nspinor =       1
    nsppol =       1      nsym =      24    n1xccc =    2501    ntypat =       2
    occopt =       1   xclevel =       2
-    mband =         480        mffmem =           1         mkmem =           1
       mpw =        1700          nfft =       46656          nkpt =          29
================================================================================
P This job should need less than                      35.897 Mbytes of memory.
  Rough estimation (10% accuracy) of disk space for files :
_ WF disk file :    361.086 Mbytes ; DEN or POT disk file :      0.358 Mbytes.
================================================================================


 DATASET    8 : space group F-4 3 m (#216); Bravais cF (face-center cubic)
================================================================================
 Values of the parameters that define the memory need for DATASET  8.
     intxc =       0    ionmov =       0      iscf =       7    lmnmax =       6
     lnmax =       6     mgfft =      36  mpssoang =       3    mqgrid =    3001
     natom =       2  nloc_mem =       1    nspden =       1   nspinor =       1
    nsppol =       1      nsym =      24    n1xccc =    2501    ntypat =       2
    occopt =       1   xclevel =       2
-    mband =         480        mffmem =           1         mkmem =           1
       mpw =        1700          nfft =       46656          nkpt =          29
================================================================================
P This job should need less than                      35.897 Mbytes of memory.
  Rough estimation (10% accuracy) of disk space for files :
_ WF disk file :    361.086 Mbytes ; DEN or POT disk file :      0.358 Mbytes.
================================================================================


 DATASET    9 : space group F-4 3 m (#216); Bravais cF (face-center cubic)
================================================================================
 Values of the parameters that define the memory need for DATASET  9.
     intxc =       0    ionmov =       0      iscf =       7    lmnmax =       6
     lnmax =       6     mgfft =      36  mpssoang =       3    mqgrid =    3001
     natom =       2  nloc_mem =       1    nspden =       1   nspinor =       1
    nsppol =       1      nsym =      24    n1xccc =    2501    ntypat =       2
    occopt =       1   xclevel =       2
-    mband =         480        mffmem =           1         mkmem =           1
       mpw =        1700          nfft =       46656          nkpt =          29
================================================================================
P This job should need less than                      35.897 Mbytes of memory.
  Rough estimation (10% accuracy) of disk space for files :
_ WF disk file :    361.086 Mbytes ; DEN or POT disk file :      0.358 Mbytes.
================================================================================


 DATASET   10 : space group F-4 3 m (#216); Bravais cF (face-center cubic)
================================================================================
 Values of the parameters that define the memory need for DATASET 10.
     intxc =       0    ionmov =       0      iscf =       7    lmnmax =       6
     lnmax =       6     mgfft =      36  mpssoang =       3    mqgrid =    3001
     natom =       2  nloc_mem =       1    nspden =       1   nspinor =       1
    nsppol =       1      nsym =      24    n1xccc =    2501    ntypat =       2
    occopt =       1   xclevel =       2
-    mband =         480        mffmem =           1         mkmem =           1
       mpw =        1700          nfft =       46656          nkpt =          29
================================================================================
P This job should need less than                      35.897 Mbytes of memory.
  Rough estimation (10% accuracy) of disk space for files :
_ WF disk file :    361.086 Mbytes ; DEN or POT disk file :      0.358 Mbytes.
================================================================================


 DATASET   11 : space group F-4 3 m (#216); Bravais cF (face-center cubic)
================================================================================
 Values of the parameters that define the memory need for DATASET 11.
     intxc =       0    ionmov =       0      iscf =       7    lmnmax =       6
     lnmax =       6     mgfft =      36  mpssoang =       3    mqgrid =    3001
     natom =       2  nloc_mem =       1    nspden =       1   nspinor =       1
    nsppol =       1      nsym =      24    n1xccc =    2501    ntypat =       2
    occopt =       1   xclevel =       2
-    mband =         480        mffmem =           1         mkmem =           1
       mpw =        1700          nfft =       46656          nkpt =          29
================================================================================
P This job should need less than                      35.897 Mbytes of memory.
  Rough estimation (10% accuracy) of disk space for files :
_ WF disk file :    361.086 Mbytes ; DEN or POT disk file :      0.358 Mbytes.
================================================================================


 DATASET   12 : space group F-4 3 m (#216); Bravais cF (face-center cubic)
================================================================================
 Values of the parameters that define the memory need for DATASET 12.
     intxc =       0    ionmov =       0      iscf =       7    lmnmax =       6
     lnmax =       6     mgfft =      36  mpssoang =       3    mqgrid =    3001
     natom =       2  nloc_mem =       1    nspden =       1   nspinor =       1
    nsppol =       1      nsym =      24    n1xccc =    2501    ntypat =       2
    occopt =       1   xclevel =       2
-    mband =         480        mffmem =           1         mkmem =           1
       mpw =        1700          nfft =       46656          nkpt =          29
================================================================================
P This job should need less than                      35.897 Mbytes of memory.
  Rough estimation (10% accuracy) of disk space for files :
_ WF disk file :    361.086 Mbytes ; DEN or POT disk file :      0.358 Mbytes.
================================================================================


 DATASET   13 : space group F-4 3 m (#216); Bravais cF (face-center cubic)
================================================================================
 Values of the parameters that define the memory need for DATASET 13.
     intxc =       0    ionmov =       0      iscf =       7    lmnmax =       6
     lnmax =       6     mgfft =      36  mpssoang =       3    mqgrid =    3001
     natom =       2  nloc_mem =       1    nspden =       1   nspinor =       1
    nsppol =       1      nsym =      24    n1xccc =    2501    ntypat =       2
    occopt =       1   xclevel =       2
-    mband =         480        mffmem =           1         mkmem =           1
       mpw =        1700          nfft =       46656          nkpt =          29
================================================================================
P This job should need less than                      35.897 Mbytes of memory.
  Rough estimation (10% accuracy) of disk space for files :
_ WF disk file :    361.086 Mbytes ; DEN or POT disk file :      0.358 Mbytes.
================================================================================


 DATASET   14 : space group F-4 3 m (#216); Bravais cF (face-center cubic)
================================================================================
 Values of the parameters that define the memory need for DATASET 14.
     intxc =       0    ionmov =       0      iscf =       7    lmnmax =       6
     lnmax =       6     mgfft =      36  mpssoang =       3    mqgrid =    3001
     natom =       2  nloc_mem =       1    nspden =       1   nspinor =       1
    nsppol =       1      nsym =      24    n1xccc =    2501    ntypat =       2
    occopt =       1   xclevel =       2
-    mband =         480        mffmem =           1         mkmem =           1
       mpw =        1700          nfft =       46656          nkpt =          29
================================================================================
P This job should need less than                      35.897 Mbytes of memory.
  Rough estimation (10% accuracy) of disk space for files :
_ WF disk file :    361.086 Mbytes ; DEN or POT disk file :      0.358 Mbytes.
================================================================================


 DATASET   15 : space group F-4 3 m (#216); Bravais cF (face-center cubic)
================================================================================
 Values of the parameters that define the memory need for DATASET 15.
     intxc =       0    ionmov =       0      iscf =       7    lmnmax =       6
     lnmax =       6     mgfft =      36  mpssoang =       3    mqgrid =    3001
     natom =       2  nloc_mem =       1    nspden =       1   nspinor =       1
    nsppol =       1      nsym =      24    n1xccc =    2501    ntypat =       2
    occopt =       1   xclevel =       2
-    mband =         480        mffmem =           1         mkmem =           1
       mpw =        1700          nfft =       46656          nkpt =          29
================================================================================
P This job should need less than                      35.897 Mbytes of memory.
  Rough estimation (10% accuracy) of disk space for files :
_ WF disk file :    361.086 Mbytes ; DEN or POT disk file :      0.358 Mbytes.
================================================================================

--------------------------------------------------------------------------------
------------- Echo of variables that govern the present computation ------------
--------------------------------------------------------------------------------
-
- outvars: echo of selected default values                                      
-   iomode0 =  0 , fftalg0 =312 , wfoptalg0 =  0
-
- outvars: echo of global parameters not present in the input file              
-  max_nthreads =    0
-
 -outvars: echo values of preprocessed input variables --------
            acell      8.2203086781E+00  8.2203086781E+00  8.2203086781E+00 Bohr
              amu      1.20110000E+01  2.80855000E+01
             bdgw           1       8       1       8
           diemac      1.20000000E+01
             ecut      4.00000000E+01 Hartree
          ecuteps      1.20000000E+01 Hartree
         ecutsigx      4.00000000E+01 Hartree
-          fftalg         312
-     gwr_np_kgts        4   64    2    1
-  gwr_ucsc_batch        4    4
         gwr_ntau1          6
         gwr_ntau2          8
         gwr_ntau3         10
         gwr_ntau4         12
         gwr_ntau5         14
         gwr_ntau6         16
         gwr_ntau7         18
         gwr_ntau8         20
         gwr_ntau9         22
         gwr_ntau10        24
         gwr_ntau11        26
         gwr_ntau12        28
         gwr_ntau13        30
         gwr_ntau14        32
         gwr_ntau15        34
   gwr_sigma_algo           2
           istwfk        1    0    0    0    1    0    0    0    0    0
                         0    0    0    0    0    0    0    0    0    0
                         1    0    0    0    0    0    0    0    0
              ixc          11
           jdtset        1    2    3    4    5    6    7    8    9   10
                        11   12   13   14   15
              kpt      0.00000000E+00  0.00000000E+00  0.00000000E+00
                       1.25000000E-01  0.00000000E+00  0.00000000E+00
                       2.50000000E-01  0.00000000E+00  0.00000000E+00
                       3.75000000E-01  0.00000000E+00  0.00000000E+00
                       5.00000000E-01  0.00000000E+00  0.00000000E+00
                       1.25000000E-01  1.25000000E-01  0.00000000E+00
                       2.50000000E-01  1.25000000E-01  0.00000000E+00
                       3.75000000E-01  1.25000000E-01  0.00000000E+00
                       5.00000000E-01  1.25000000E-01  0.00000000E+00
                      -3.75000000E-01  1.25000000E-01  0.00000000E+00
                      -2.50000000E-01  1.25000000E-01  0.00000000E+00
                      -1.25000000E-01  1.25000000E-01  0.00000000E+00
                       2.50000000E-01  2.50000000E-01  0.00000000E+00
                       3.75000000E-01  2.50000000E-01  0.00000000E+00
                       5.00000000E-01  2.50000000E-01  0.00000000E+00
                      -3.75000000E-01  2.50000000E-01  0.00000000E+00
                      -2.50000000E-01  2.50000000E-01  0.00000000E+00
                       3.75000000E-01  3.75000000E-01  0.00000000E+00
                       5.00000000E-01  3.75000000E-01  0.00000000E+00
                      -3.75000000E-01  3.75000000E-01  0.00000000E+00
                       5.00000000E-01  5.00000000E-01  0.00000000E+00
                       3.75000000E-01  2.50000000E-01  1.25000000E-01
                       5.00000000E-01  2.50000000E-01  1.25000000E-01
                      -3.75000000E-01  2.50000000E-01  1.25000000E-01
                       5.00000000E-01  3.75000000E-01  1.25000000E-01
                      -3.75000000E-01  3.75000000E-01  1.25000000E-01
                      -2.50000000E-01  3.75000000E-01  1.25000000E-01
                      -3.75000000E-01  5.00000000E-01  1.25000000E-01
                      -2.50000000E-01  5.00000000E-01  2.50000000E-01
            kptgw      0.00000000E+00  0.00000000E+00  0.00000000E+00
                       5.00000000E-01  5.00000000E-01  0.00000000E+00
         kptrlatt        8    0    0      0    8    0      0    0    8
          kptrlen      4.65010881E+01
P           mkmem           1
            natom           2
            nband         480
           ndtset          15
            ngfft          36      36      36
             nkpt          29
           nkptgw           2
            nstep          50
             nsym          24
           ntypat           2
              occ      2.000000  2.000000  2.000000  2.000000  0.000000  0.000000
                       0.000000  0.000000  0.000000  0.000000  0.000000  0.000000
                       0.000000  0.000000  0.000000  0.000000  0.000000  0.000000
                       0.000000  0.000000  0.000000  0.000000  0.000000  0.000000
                       0.000000  0.000000  0.000000  0.000000  0.000000  0.000000
                       0.000000  0.000000  0.000000  0.000000  0.000000  0.000000
                       0.000000  0.000000  0.000000  0.000000  0.000000  0.000000
                       0.000000  0.000000  0.000000  0.000000  0.000000  0.000000
                       0.000000  0.000000  0.000000  0.000000  0.000000  0.000000
                       0.000000  0.000000  0.000000  0.000000  0.000000  0.000000
                       0.000000  0.000000  0.000000  0.000000  0.000000  0.000000
                       0.000000  0.000000  0.000000  0.000000  0.000000  0.000000
                       0.000000  0.000000  0.000000  0.000000  0.000000  0.000000
                       0.000000  0.000000  0.000000  0.000000  0.000000  0.000000
                       0.000000  0.000000  0.000000  0.000000  0.000000  0.000000
                       0.000000  0.000000  0.000000  0.000000  0.000000  0.000000
                       0.000000  0.000000  0.000000  0.000000  0.000000  0.000000
                       0.000000  0.000000  0.000000  0.000000  0.000000  0.000000
                       0.000000  0.000000  0.000000  0.000000  0.000000  0.000000
                       0.000000  0.000000  0.000000  0.000000  0.000000  0.000000
                       0.000000  0.000000  0.000000  0.000000  0.000000  0.000000
                       0.000000  0.000000  0.000000  0.000000  0.000000  0.000000
                       0.000000  0.000000  0.000000  0.000000  0.000000  0.000000
                       0.000000  0.000000  0.000000  0.000000  0.000000  0.000000
                       0.000000  0.000000  0.000000  0.000000  0.000000  0.000000
                       0.000000  0.000000  0.000000  0.000000  0.000000  0.000000
                       0.000000  0.000000  0.000000  0.000000  0.000000  0.000000
                       0.000000  0.000000  0.000000  0.000000  0.000000  0.000000
                       0.000000  0.000000  0.000000  0.000000  0.000000  0.000000
                       0.000000  0.000000  0.000000  0.000000  0.000000  0.000000
                       0.000000  0.000000  0.000000  0.000000  0.000000  0.000000
                       0.000000  0.000000  0.000000  0.000000  0.000000  0.000000
                       0.000000  0.000000  0.000000  0.000000  0.000000  0.000000
                       0.000000  0.000000  0.000000  0.000000  0.000000  0.000000
                       0.000000  0.000000  0.000000  0.000000  0.000000  0.000000
                       0.000000  0.000000  0.000000  0.000000  0.000000  0.000000
                       0.000000  0.000000  0.000000  0.000000  0.000000  0.000000
                       0.000000  0.000000  0.000000  0.000000  0.000000  0.000000
                       0.000000  0.000000  0.000000  0.000000  0.000000  0.000000
                       0.000000  0.000000  0.000000  0.000000  0.000000  0.000000
                       0.000000  0.000000  0.000000  0.000000  0.000000  0.000000
                       0.000000  0.000000  0.000000  0.000000  0.000000  0.000000
                       0.000000  0.000000  0.000000  0.000000  0.000000  0.000000
                       0.000000  0.000000  0.000000  0.000000  0.000000  0.000000
                       0.000000  0.000000  0.000000  0.000000  0.000000  0.000000
                       0.000000  0.000000  0.000000  0.000000  0.000000  0.000000
                       0.000000  0.000000  0.000000  0.000000  0.000000  0.000000
                       0.000000  0.000000  0.000000  0.000000  0.000000  0.000000
                       0.000000  0.000000  0.000000  0.000000  0.000000  0.000000
                       0.000000  0.000000  0.000000  0.000000  0.000000  0.000000
                       0.000000  0.000000  0.000000  0.000000  0.000000  0.000000
                       0.000000  0.000000  0.000000  0.000000  0.000000  0.000000
                       0.000000  0.000000  0.000000  0.000000  0.000000  0.000000
                       0.000000  0.000000  0.000000  0.000000  0.000000  0.000000
                       0.000000  0.000000  0.000000  0.000000  0.000000  0.000000
                       0.000000  0.000000  0.000000  0.000000  0.000000  0.000000
                       0.000000  0.000000  0.000000  0.000000  0.000000  0.000000
                       0.000000  0.000000  0.000000  0.000000  0.000000  0.000000
                       0.000000  0.000000  0.000000  0.000000  0.000000  0.000000
                       0.000000  0.000000  0.000000  0.000000  0.000000  0.000000
                       0.000000  0.000000  0.000000  0.000000  0.000000  0.000000
                       0.000000  0.000000  0.000000  0.000000  0.000000  0.000000
                       0.000000  0.000000  0.000000  0.000000  0.000000  0.000000
                       0.000000  0.000000  0.000000  0.000000  0.000000  0.000000
                       0.000000  0.000000  0.000000  0.000000  0.000000  0.000000
                       0.000000  0.000000  0.000000  0.000000  0.000000  0.000000
                       0.000000  0.000000  0.000000  0.000000  0.000000  0.000000
                       0.000000  0.000000  0.000000  0.000000  0.000000  0.000000
                       0.000000  0.000000  0.000000  0.000000  0.000000  0.000000
                       0.000000  0.000000  0.000000  0.000000  0.000000  0.000000
                       0.000000  0.000000  0.000000  0.000000  0.000000  0.000000
                       0.000000  0.000000  0.000000  0.000000  0.000000  0.000000
                       0.000000  0.000000  0.000000  0.000000  0.000000  0.000000
                       0.000000  0.000000  0.000000  0.000000  0.000000  0.000000
                       0.000000  0.000000  0.000000  0.000000  0.000000  0.000000
                       0.000000  0.000000  0.000000  0.000000  0.000000  0.000000
                       0.000000  0.000000  0.000000  0.000000  0.000000  0.000000
                       0.000000  0.000000  0.000000  0.000000  0.000000  0.000000
                       0.000000  0.000000  0.000000  0.000000  0.000000  0.000000
                       0.000000  0.000000  0.000000  0.000000  0.000000  0.000000
        optdriver           6
            rprim      0.0000000000E+00  5.0000000000E-01  5.0000000000E-01
                       5.0000000000E-01  0.0000000000E+00  5.0000000000E-01
                       5.0000000000E-01  5.0000000000E-01  0.0000000000E+00
          spgroup         216
           symrel      1  0  0   0  1  0   0  0  1       0 -1  1   0 -1  0   1 -1  0
                      -1  0  0  -1  0  1  -1  1  0       0  1 -1   1  0 -1   0  0 -1
                      -1  0  0  -1  1  0  -1  0  1       0 -1  1   1 -1  0   0 -1  0
                       1  0  0   0  0  1   0  1  0       0  1 -1   0  0 -1   1  0 -1
                      -1  0  1  -1  1  0  -1  0  0       0 -1  0   1 -1  0   0 -1  1
                       1  0 -1   0  0 -1   0  1 -1       0  1  0   0  0  1   1  0  0
                       1  0 -1   0  1 -1   0  0 -1       0 -1  0   0 -1  1   1 -1  0
                      -1  0  1  -1  0  0  -1  1  0       0  1  0   1  0  0   0  0  1
                       0  0 -1   0  1 -1   1  0 -1       1 -1  0   0 -1  1   0 -1  0
                       0  0  1   1  0  0   0  1  0      -1  1  0  -1  0  0  -1  0  1
                       0  0  1   0  1  0   1  0  0       1 -1  0   0 -1  0   0 -1  1
                       0  0 -1   1  0 -1   0  1 -1      -1  1  0  -1  0  1  -1  0  0
           timopt          -1
            typat      1  2
              wtk        0.00195    0.01563    0.01563    0.01563    0.00781    0.01172
                         0.04688    0.04688    0.04688    0.04688    0.04688    0.02344
                         0.01172    0.04688    0.04688    0.04688    0.02344    0.01172
                         0.04688    0.02344    0.00586    0.04688    0.09375    0.04688
                         0.04688    0.09375    0.04688    0.02344    0.01172
           xangst      0.0000000000E+00  0.0000000000E+00  0.0000000000E+00
                       1.0875000000E+00  1.0875000000E+00  1.0875000000E+00
            xcart      0.0000000000E+00  0.0000000000E+00  0.0000000000E+00
                       2.0550771695E+00  2.0550771695E+00  2.0550771695E+00
             xred      0.0000000000E+00  0.0000000000E+00  0.0000000000E+00
                       2.5000000000E-01  2.5000000000E-01  2.5000000000E-01
            znucl        6.00000   14.00000

================================================================================

 chkinp: Checking input parameters for consistency, jdtset=   1.

 chkinp: Checking input parameters for consistency, jdtset=   2.

 chkinp: Checking input parameters for consistency, jdtset=   3.

 chkinp: Checking input parameters for consistency, jdtset=   4.

 chkinp: Checking input parameters for consistency, jdtset=   5.

 chkinp: Checking input parameters for consistency, jdtset=   6.

 chkinp: Checking input parameters for consistency, jdtset=   7.

 chkinp: Checking input parameters for consistency, jdtset=   8.

 chkinp: Checking input parameters for consistency, jdtset=   9.

 chkinp: Checking input parameters for consistency, jdtset=  10.

 chkinp: Checking input parameters for consistency, jdtset=  11.

 chkinp: Checking input parameters for consistency, jdtset=  12.

 chkinp: Checking input parameters for consistency, jdtset=  13.

 chkinp: Checking input parameters for consistency, jdtset=  14.

 chkinp: Checking input parameters for consistency, jdtset=  15.

================================================================================
== DATASET  1 ==================================================================
-   mpi_nproc: 512, omp_nthreads: -1 (-1 if OMP is not activated)


--- !DatasetInfo
iteration_state: {dtset: 1, }
dimensions: {natom: 2, nkpt: 29, mband: 480, nsppol: 1, nspinor: 1, nspden: 1, mpw: 1700, }
cutoff_energies: {ecut:  40.0, pawecutdg:  -1.0, }
electrons: {nelect:   8.00000000E+00, charge:   0.00000000E+00, occopt:   1.00000000E+00, tsmear:   1.00000000E-02, }
meta: {optdriver: 6, }
...

 mkfilename: getwfk from: ../outdata_gs_DS2_WFK

 mkfilename: getden from: ../outdata_gs_DS1_DEN

 Exchange-correlation functional for the present dataset will be:
  GGA: Perdew-Burke-Ernzerhof functional - ixc=11
 Citation for XC functional:
  J.P.Perdew, K.Burke, M.Ernzerhof, PRL 77, 3865 (1996)

.Using single precision arithmetic; gwpc =  4

- Reading GS density from: ../outdata_gs_DS1_DEN




--- Pseudopotential description ------------------------------------------------
- pspini: atom type   1  psp file is ../C.psp8
- pspatm: opening atomic psp file    ../C.psp8
- C     ONCVPSP-3.2.3.1  r_core=   1.20440   1.26326
-  6.00000   4.00000    170503                znucl, zion, pspdat
    8   11    1    4       600   0.00000      pspcod,pspxc,lmax,lloc,mmax,r2well
    5.99000000000000    4.00000000000000    0.00000000000000   rchrg,fchrg,qchrg
     nproj     2     2
     extension_switch     1
  pspatm : epsatm=    4.31347020
         --- l  ekb(1:nproj) -->
             0    6.481548    0.385504
             1   -4.199961   -0.877517
 pspatm: atomic psp has been read  and splines computed

- pspini: atom type   2  psp file is ../Si.psp8
- pspatm: opening atomic psp file    ../Si.psp8
- Si    ONCVPSP-3.2.3.1  r_core=   1.60303   1.72197   1.91712
- 14.00000   4.00000    170510                znucl, zion, pspdat
    8   11    2    4       600   0.00000      pspcod,pspxc,lmax,lloc,mmax,r2well
    5.99000000000000    4.00000000000000    0.00000000000000   rchrg,fchrg,qchrg
     nproj     2     2     2
     extension_switch     1
  pspatm : epsatm=    9.34321699
         --- l  ekb(1:nproj) -->
             0    5.168965    0.829883
             1    2.571282    0.578307
             2   -2.427311   -0.488097
 pspatm: atomic psp has been read  and splines computed

   1.09253498E+02                                ecore*ucvol(ha*bohr**3)
--------------------------------------------------------------------------------

 Total charge density [el/Bohr^3]
)     Maximum=    2.8063E-01  at reduced coord.    0.0556    0.0556    0.8611
)     Minimum=    1.4031E-03  at reduced coord.    0.2500    0.2500    0.2500
   Integrated=    8.0000E+00
- Reading GS states from WFK file: ../outdata_gs_DS2_WFK
  Mapping kBZ --> kIBZ
 Legend: bz = TS(ibz) + g0 where isym is the index of the symrec operation S and itim is 1 if TR is used.
        BZ                                       IBZ                                       ibz  isym  itim  g0
     1  [ 0.0000E+00,  0.0000E+00,  0.0000E+00]  [ 0.0000E+00,  0.0000E+00,  0.0000E+00]     1     1     0  [0, 0, 0]
     2  [ 1.2500E-01,  0.0000E+00,  0.0000E+00]  [ 1.2500E-01,  0.0000E+00,  0.0000E+00]     2     1     0  [0, 0, 0]
     3  [-1.2500E-01,  0.0000E+00,  0.0000E+00]  [ 1.2500E-01,  0.0000E+00,  0.0000E+00]     2     1     1  [0, 0, 0]
     4  [ 0.0000E+00,  0.0000E+00, -1.2500E-01]  [ 1.2500E-01,  0.0000E+00,  0.0000E+00]     2     2     1  [0, 0, 0]
     5  [ 0.0000E+00,  1.2500E-01,  0.0000E+00]  [ 1.2500E-01,  0.0000E+00,  0.0000E+00]     2     4     0  [0, 0, 0]
     6  [ 1.2500E-01,  1.2500E-01,  1.2500E-01]  [ 1.2500E-01,  0.0000E+00,  0.0000E+00]     2     3     1  [0, 0, 0]
     7  [-1.2500E-01, -1.2500E-01, -1.2500E-01]  [ 1.2500E-01,  0.0000E+00,  0.0000E+00]     2     3     0  [0, 0, 0]
     8  [ 0.0000E+00, -1.2500E-01,  0.0000E+00]  [ 1.2500E-01,  0.0000E+00,  0.0000E+00]     2     4     1  [0, 0, 0]
     9  [ 0.0000E+00,  0.0000E+00,  1.2500E-01]  [ 1.2500E-01,  0.0000E+00,  0.0000E+00]     2     2     0  [0, 0, 0]
    10  [ 2.5000E-01,  0.0000E+00,  0.0000E+00]  [ 2.5000E-01,  0.0000E+00,  0.0000E+00]     3     1     0  [0, 0, 0]
    11  [ 2.5000E-01,  2.5000E-01,  2.5000E-01]  [ 2.5000E-01,  0.0000E+00,  0.0000E+00]     3     3     1  [0, 0, 0]
    12  [ 0.0000E+00,  2.5000E-01,  0.0000E+00]  [ 2.5000E-01,  0.0000E+00,  0.0000E+00]     3     4     0  [0, 0, 0]
    13  [ 0.0000E+00, -2.5000E-01,  0.0000E+00]  [ 2.5000E-01,  0.0000E+00,  0.0000E+00]     3     4     1  [0, 0, 0]
    14  [-2.5000E-01,  0.0000E+00,  0.0000E+00]  [ 2.5000E-01,  0.0000E+00,  0.0000E+00]     3     1     1  [0, 0, 0]
    15  [ 0.0000E+00,  0.0000E+00,  2.5000E-01]  [ 2.5000E-01,  0.0000E+00,  0.0000E+00]     3     2     0  [0, 0, 0]
    16  [ 0.0000E+00,  0.0000E+00, -2.5000E-01]  [ 2.5000E-01,  0.0000E+00,  0.0000E+00]     3     2     1  [0, 0, 0]
    17  [-2.5000E-01, -2.5000E-01, -2.5000E-01]  [ 2.5000E-01,  0.0000E+00,  0.0000E+00]     3     3     0  [0, 0, 0]
    18  [ 3.7500E-01,  0.0000E+00,  0.0000E+00]  [ 3.7500E-01,  0.0000E+00,  0.0000E+00]     4     1     0  [0, 0, 0]
    19  [-3.7500E-01, -3.7500E-01, -3.7500E-01]  [ 3.7500E-01,  0.0000E+00,  0.0000E+00]     4     3     0  [0, 0, 0]
    20  [ 0.0000E+00,  0.0000E+00, -3.7500E-01]  [ 3.7500E-01,  0.0000E+00,  0.0000E+00]     4     2     1  [0, 0, 0]
prtvol = 0, max 20 points are written


  Mapping qBZ --> qIBZ
 Legend: bz = TS(ibz) + g0 where isym is the index of the symrec operation S and itim is 1 if TR is used.
        BZ                                       IBZ                                       ibz  isym  itim  g0
     1  [ 0.0000E+00,  0.0000E+00,  0.0000E+00]  [ 0.0000E+00,  0.0000E+00,  0.0000E+00]     1     1     0  [0, 0, 0]
     2  [ 1.2500E-01,  0.0000E+00,  0.0000E+00]  [ 1.2500E-01,  0.0000E+00,  0.0000E+00]     2     1     0  [0, 0, 0]
     3  [-1.2500E-01,  0.0000E+00,  0.0000E+00]  [ 1.2500E-01,  0.0000E+00,  0.0000E+00]     2     1     1  [0, 0, 0]
     4  [ 0.0000E+00,  0.0000E+00, -1.2500E-01]  [ 1.2500E-01,  0.0000E+00,  0.0000E+00]     2     2     1  [0, 0, 0]
     5  [ 0.0000E+00,  1.2500E-01,  0.0000E+00]  [ 1.2500E-01,  0.0000E+00,  0.0000E+00]     2     4     0  [0, 0, 0]
     6  [ 1.2500E-01,  1.2500E-01,  1.2500E-01]  [ 1.2500E-01,  0.0000E+00,  0.0000E+00]     2     3     1  [0, 0, 0]
     7  [-1.2500E-01, -1.2500E-01, -1.2500E-01]  [ 1.2500E-01,  0.0000E+00,  0.0000E+00]     2     3     0  [0, 0, 0]
     8  [ 0.0000E+00, -1.2500E-01,  0.0000E+00]  [ 1.2500E-01,  0.0000E+00,  0.0000E+00]     2     4     1  [0, 0, 0]
     9  [ 0.0000E+00,  0.0000E+00,  1.2500E-01]  [ 1.2500E-01,  0.0000E+00,  0.0000E+00]     2     2     0  [0, 0, 0]
    10  [ 2.5000E-01,  0.0000E+00,  0.0000E+00]  [ 2.5000E-01,  0.0000E+00,  0.0000E+00]     3     1     0  [0, 0, 0]
    11  [ 2.5000E-01,  2.5000E-01,  2.5000E-01]  [ 2.5000E-01,  0.0000E+00,  0.0000E+00]     3     3     1  [0, 0, 0]
    12  [ 0.0000E+00,  2.5000E-01,  0.0000E+00]  [ 2.5000E-01,  0.0000E+00,  0.0000E+00]     3     4     0  [0, 0, 0]
    13  [ 0.0000E+00, -2.5000E-01,  0.0000E+00]  [ 2.5000E-01,  0.0000E+00,  0.0000E+00]     3     4     1  [0, 0, 0]
    14  [-2.5000E-01,  0.0000E+00,  0.0000E+00]  [ 2.5000E-01,  0.0000E+00,  0.0000E+00]     3     1     1  [0, 0, 0]
    15  [ 0.0000E+00,  0.0000E+00,  2.5000E-01]  [ 2.5000E-01,  0.0000E+00,  0.0000E+00]     3     2     0  [0, 0, 0]
    16  [ 0.0000E+00,  0.0000E+00, -2.5000E-01]  [ 2.5000E-01,  0.0000E+00,  0.0000E+00]     3     2     1  [0, 0, 0]
    17  [-2.5000E-01, -2.5000E-01, -2.5000E-01]  [ 2.5000E-01,  0.0000E+00,  0.0000E+00]     3     3     0  [0, 0, 0]
    18  [ 3.7500E-01,  0.0000E+00,  0.0000E+00]  [ 3.7500E-01,  0.0000E+00,  0.0000E+00]     4     1     0  [0, 0, 0]
    19  [-3.7500E-01, -3.7500E-01, -3.7500E-01]  [ 3.7500E-01,  0.0000E+00,  0.0000E+00]     4     3     0  [0, 0, 0]
    20  [ 0.0000E+00,  0.0000E+00, -3.7500E-01]  [ 3.7500E-01,  0.0000E+00,  0.0000E+00]     4     2     1  [0, 0, 0]
prtvol = 0, max 20 points are written



 === Kohn-Sham gaps and band edges from IBZ mesh ===
 Indirect band gap semiconductor
 Fundamental gap:     1.357 (eV)
   VBM:    -0.678 (eV) at k: [ 0.0000E+00,  0.0000E+00,  0.0000E+00]
   CBM:     0.678 (eV) at k: [ 5.0000E-01,  5.0000E-01,  0.0000E+00]
 Direct gap:         4.559 (eV) at k: [ 5.0000E-01,  5.0000E-01,  0.0000E+00]


 ==== FFT mesh for Green's function ====
  FFT mesh divisions ........................    18   18   18
  Augmented FFT divisions ...................    18   18   18
  FFT algorithm .............................   312
  FFT cache size ............................    16
- FFT uc_batch_size: 4
- FFT sc_batch_size: 4
 ==== Info on the GWR object ====

--- !GWR_params
iteration_state: {dtset: 1, }
gwr_task: RPA_ENERGY
nband: 480
ntau: 6
ngkpt: [8, 8, 8, ]
ngqpt: [8, 8, 8, ]
chi_algo: supercell
sigma_algo: 'BZ-convolutions'
nkibz: 29
nqibz: 29
inclvkb: 2
q0: [  1.00000000E-05,   2.00000000E-05,   3.00000000E-05, ]
gw_icutcoul: 6
green_mpw: 1700
tchi_mpw: 290
g_ngfft: [18, 18, 18, 18, 18, 18, ]
P gwr_np_kgts: [4, 64, 2, 1, ]
P np_kibz: [
    1, 1, 1, 1, 1, 1, 1, 1, 
    1, 2, 1, 1, 1, 1, 1, 1, 
    2, 1, 1, 1, 1, 1, 1, 2, 
    1, 1, 1, 1, 1, 
]
P np_qibz: [
    1, 1, 1, 1, 1, 1, 1, 1, 
    1, 2, 1, 1, 1, 1, 1, 1, 
    2, 1, 1, 1, 1, 1, 1, 2, 
    1, 1, 1, 1, 1, 
]
min_transition_energy_eV:   4.98630147E-02
max_transition_energy_eV:   1.74087242E+01
eratio:   3.49131000E+02
ft_max_err_t2w_cos:   1.35850167E-02
ft_max_err_w2t_cos:   1.21218642E-02
ft_max_err_t2w_sin:   5.11566351E-01
cosft_duality_error:   5.66498279E-04
Minimax imaginary tau/omega mesh: !Tabular | # tau, weight(tau), omega, weight(omega)
    1 3.73502E-02   1.04476E-01   2.01908E-02   4.28808E-02
    2 2.83724E-01   4.57169E-01   7.75470E-02   8.03159E-02
    3 1.19371E+00   1.55480E+00   2.10093E-01   2.09998E-01
    4 4.00739E+00   4.53794E+00   5.98242E-01   6.62405E-01
    5 1.17211E+01   1.19899E+01   1.97921E+00   2.58082E+00
    6 3.17702E+01   3.15837E+01   8.67171E+00   1.49279E+01
...


 Computing chi0 head and wings with inclvkb: 2
 Using KS orbitals and KS energies...


 ==== FFT mesh for chi0 head/wings computation ====
  FFT mesh divisions ........................    36   36   36
  Augmented FFT divisions ...................    37   37   36
  FFT algorithm .............................   312
  FFT cache size ............................    16


 Building Green's functions from KS orbitals and KS energies...

        ecut_chi ecut_chi^(-3/2)     RPA Ec (eV)     RPA Ec (Ha)
  9.60000000E+00  3.36196471E-02 -1.27695639E+01 -4.69272860E-01
  1.02000000E+01  3.06972692E-02 -1.28113087E+01 -4.70806953E-01
  1.08000000E+01  2.81750287E-02 -1.28474220E+01 -4.72134091E-01
  1.14000000E+01  2.59802139E-02 -1.28780283E+01 -4.73258851E-01
  1.20000000E+01  2.40562612E-02 -1.29058990E+01 -4.74283082E-01
              oo               0 -1.32482109E+01 -4.86862814E-01

================================================================================
== DATASET  2 ==================================================================
-   mpi_nproc: 512, omp_nthreads: -1 (-1 if OMP is not activated)


--- !DatasetInfo
iteration_state: {dtset: 2, }
dimensions: {natom: 2, nkpt: 29, mband: 480, nsppol: 1, nspinor: 1, nspden: 1, mpw: 1700, }
cutoff_energies: {ecut:  40.0, pawecutdg:  -1.0, }
electrons: {nelect:   8.00000000E+00, charge:   0.00000000E+00, occopt:   1.00000000E+00, tsmear:   1.00000000E-02, }
meta: {optdriver: 6, }
...

 mkfilename: getwfk from: ../outdata_gs_DS2_WFK

 mkfilename: getden from: ../outdata_gs_DS1_DEN

 Exchange-correlation functional for the present dataset will be:
  GGA: Perdew-Burke-Ernzerhof functional - ixc=11
 Citation for XC functional:
  J.P.Perdew, K.Burke, M.Ernzerhof, PRL 77, 3865 (1996)

.Using single precision arithmetic; gwpc =  4

- Reading GS density from: ../outdata_gs_DS1_DEN



--------------------------------------------------------------------------------

 Total charge density [el/Bohr^3]
)     Maximum=    2.8063E-01  at reduced coord.    0.0556    0.0556    0.8611
)     Minimum=    1.4031E-03  at reduced coord.    0.2500    0.2500    0.2500
   Integrated=    8.0000E+00
- Reading GS states from WFK file: ../outdata_gs_DS2_WFK
  Mapping kBZ --> kIBZ
 Legend: bz = TS(ibz) + g0 where isym is the index of the symrec operation S and itim is 1 if TR is used.
        BZ                                       IBZ                                       ibz  isym  itim  g0
     1  [ 0.0000E+00,  0.0000E+00,  0.0000E+00]  [ 0.0000E+00,  0.0000E+00,  0.0000E+00]     1     1     0  [0, 0, 0]
     2  [ 1.2500E-01,  0.0000E+00,  0.0000E+00]  [ 1.2500E-01,  0.0000E+00,  0.0000E+00]     2     1     0  [0, 0, 0]
     3  [-1.2500E-01,  0.0000E+00,  0.0000E+00]  [ 1.2500E-01,  0.0000E+00,  0.0000E+00]     2     1     1  [0, 0, 0]
     4  [ 0.0000E+00,  0.0000E+00, -1.2500E-01]  [ 1.2500E-01,  0.0000E+00,  0.0000E+00]     2     2     1  [0, 0, 0]
     5  [ 0.0000E+00,  1.2500E-01,  0.0000E+00]  [ 1.2500E-01,  0.0000E+00,  0.0000E+00]     2     4     0  [0, 0, 0]
     6  [ 1.2500E-01,  1.2500E-01,  1.2500E-01]  [ 1.2500E-01,  0.0000E+00,  0.0000E+00]     2     3     1  [0, 0, 0]
     7  [-1.2500E-01, -1.2500E-01, -1.2500E-01]  [ 1.2500E-01,  0.0000E+00,  0.0000E+00]     2     3     0  [0, 0, 0]
     8  [ 0.0000E+00, -1.2500E-01,  0.0000E+00]  [ 1.2500E-01,  0.0000E+00,  0.0000E+00]     2     4     1  [0, 0, 0]
     9  [ 0.0000E+00,  0.0000E+00,  1.2500E-01]  [ 1.2500E-01,  0.0000E+00,  0.0000E+00]     2     2     0  [0, 0, 0]
    10  [ 2.5000E-01,  0.0000E+00,  0.0000E+00]  [ 2.5000E-01,  0.0000E+00,  0.0000E+00]     3     1     0  [0, 0, 0]
    11  [ 2.5000E-01,  2.5000E-01,  2.5000E-01]  [ 2.5000E-01,  0.0000E+00,  0.0000E+00]     3     3     1  [0, 0, 0]
    12  [ 0.0000E+00,  2.5000E-01,  0.0000E+00]  [ 2.5000E-01,  0.0000E+00,  0.0000E+00]     3     4     0  [0, 0, 0]
    13  [ 0.0000E+00, -2.5000E-01,  0.0000E+00]  [ 2.5000E-01,  0.0000E+00,  0.0000E+00]     3     4     1  [0, 0, 0]
    14  [-2.5000E-01,  0.0000E+00,  0.0000E+00]  [ 2.5000E-01,  0.0000E+00,  0.0000E+00]     3     1     1  [0, 0, 0]
    15  [ 0.0000E+00,  0.0000E+00,  2.5000E-01]  [ 2.5000E-01,  0.0000E+00,  0.0000E+00]     3     2     0  [0, 0, 0]
    16  [ 0.0000E+00,  0.0000E+00, -2.5000E-01]  [ 2.5000E-01,  0.0000E+00,  0.0000E+00]     3     2     1  [0, 0, 0]
    17  [-2.5000E-01, -2.5000E-01, -2.5000E-01]  [ 2.5000E-01,  0.0000E+00,  0.0000E+00]     3     3     0  [0, 0, 0]
    18  [ 3.7500E-01,  0.0000E+00,  0.0000E+00]  [ 3.7500E-01,  0.0000E+00,  0.0000E+00]     4     1     0  [0, 0, 0]
    19  [-3.7500E-01, -3.7500E-01, -3.7500E-01]  [ 3.7500E-01,  0.0000E+00,  0.0000E+00]     4     3     0  [0, 0, 0]
    20  [ 0.0000E+00,  0.0000E+00, -3.7500E-01]  [ 3.7500E-01,  0.0000E+00,  0.0000E+00]     4     2     1  [0, 0, 0]
prtvol = 0, max 20 points are written


  Mapping qBZ --> qIBZ
 Legend: bz = TS(ibz) + g0 where isym is the index of the symrec operation S and itim is 1 if TR is used.
        BZ                                       IBZ                                       ibz  isym  itim  g0
     1  [ 0.0000E+00,  0.0000E+00,  0.0000E+00]  [ 0.0000E+00,  0.0000E+00,  0.0000E+00]     1     1     0  [0, 0, 0]
     2  [ 1.2500E-01,  0.0000E+00,  0.0000E+00]  [ 1.2500E-01,  0.0000E+00,  0.0000E+00]     2     1     0  [0, 0, 0]
     3  [-1.2500E-01,  0.0000E+00,  0.0000E+00]  [ 1.2500E-01,  0.0000E+00,  0.0000E+00]     2     1     1  [0, 0, 0]
     4  [ 0.0000E+00,  0.0000E+00, -1.2500E-01]  [ 1.2500E-01,  0.0000E+00,  0.0000E+00]     2     2     1  [0, 0, 0]
     5  [ 0.0000E+00,  1.2500E-01,  0.0000E+00]  [ 1.2500E-01,  0.0000E+00,  0.0000E+00]     2     4     0  [0, 0, 0]
     6  [ 1.2500E-01,  1.2500E-01,  1.2500E-01]  [ 1.2500E-01,  0.0000E+00,  0.0000E+00]     2     3     1  [0, 0, 0]
     7  [-1.2500E-01, -1.2500E-01, -1.2500E-01]  [ 1.2500E-01,  0.0000E+00,  0.0000E+00]     2     3     0  [0, 0, 0]
     8  [ 0.0000E+00, -1.2500E-01,  0.0000E+00]  [ 1.2500E-01,  0.0000E+00,  0.0000E+00]     2     4     1  [0, 0, 0]
     9  [ 0.0000E+00,  0.0000E+00,  1.2500E-01]  [ 1.2500E-01,  0.0000E+00,  0.0000E+00]     2     2     0  [0, 0, 0]
    10  [ 2.5000E-01,  0.0000E+00,  0.0000E+00]  [ 2.5000E-01,  0.0000E+00,  0.0000E+00]     3     1     0  [0, 0, 0]
    11  [ 2.5000E-01,  2.5000E-01,  2.5000E-01]  [ 2.5000E-01,  0.0000E+00,  0.0000E+00]     3     3     1  [0, 0, 0]
    12  [ 0.0000E+00,  2.5000E-01,  0.0000E+00]  [ 2.5000E-01,  0.0000E+00,  0.0000E+00]     3     4     0  [0, 0, 0]
    13  [ 0.0000E+00, -2.5000E-01,  0.0000E+00]  [ 2.5000E-01,  0.0000E+00,  0.0000E+00]     3     4     1  [0, 0, 0]
    14  [-2.5000E-01,  0.0000E+00,  0.0000E+00]  [ 2.5000E-01,  0.0000E+00,  0.0000E+00]     3     1     1  [0, 0, 0]
    15  [ 0.0000E+00,  0.0000E+00,  2.5000E-01]  [ 2.5000E-01,  0.0000E+00,  0.0000E+00]     3     2     0  [0, 0, 0]
    16  [ 0.0000E+00,  0.0000E+00, -2.5000E-01]  [ 2.5000E-01,  0.0000E+00,  0.0000E+00]     3     2     1  [0, 0, 0]
    17  [-2.5000E-01, -2.5000E-01, -2.5000E-01]  [ 2.5000E-01,  0.0000E+00,  0.0000E+00]     3     3     0  [0, 0, 0]
    18  [ 3.7500E-01,  0.0000E+00,  0.0000E+00]  [ 3.7500E-01,  0.0000E+00,  0.0000E+00]     4     1     0  [0, 0, 0]
    19  [-3.7500E-01, -3.7500E-01, -3.7500E-01]  [ 3.7500E-01,  0.0000E+00,  0.0000E+00]     4     3     0  [0, 0, 0]
    20  [ 0.0000E+00,  0.0000E+00, -3.7500E-01]  [ 3.7500E-01,  0.0000E+00,  0.0000E+00]     4     2     1  [0, 0, 0]
prtvol = 0, max 20 points are written



 === Kohn-Sham gaps and band edges from IBZ mesh ===
 Indirect band gap semiconductor
 Fundamental gap:     1.357 (eV)
   VBM:    -0.678 (eV) at k: [ 0.0000E+00,  0.0000E+00,  0.0000E+00]
   CBM:     0.678 (eV) at k: [ 5.0000E-01,  5.0000E-01,  0.0000E+00]
 Direct gap:         4.559 (eV) at k: [ 5.0000E-01,  5.0000E-01,  0.0000E+00]


 ==== FFT mesh for Green's function ====
  FFT mesh divisions ........................    18   18   18
  Augmented FFT divisions ...................    18   18   18
  FFT algorithm .............................   312
  FFT cache size ............................    16
- FFT uc_batch_size: 4
- FFT sc_batch_size: 4
 ==== Info on the GWR object ====

--- !GWR_params
iteration_state: {dtset: 2, }
gwr_task: RPA_ENERGY
nband: 480
ntau: 8
ngkpt: [8, 8, 8, ]
ngqpt: [8, 8, 8, ]
chi_algo: supercell
sigma_algo: 'BZ-convolutions'
nkibz: 29
nqibz: 29
inclvkb: 2
q0: [  1.00000000E-05,   2.00000000E-05,   3.00000000E-05, ]
gw_icutcoul: 6
green_mpw: 1700
tchi_mpw: 290
g_ngfft: [18, 18, 18, 18, 18, 18, ]
P gwr_np_kgts: [4, 64, 2, 1, ]
P np_kibz: [
    1, 1, 1, 1, 1, 1, 1, 1, 
    1, 2, 1, 1, 1, 1, 1, 1, 
    2, 1, 1, 1, 1, 1, 1, 2, 
    1, 1, 1, 1, 1, 
]
P np_qibz: [
    1, 1, 1, 1, 1, 1, 1, 1, 
    1, 2, 1, 1, 1, 1, 1, 1, 
    2, 1, 1, 1, 1, 1, 1, 2, 
    1, 1, 1, 1, 1, 
]
min_transition_energy_eV:   4.98630147E-02
max_transition_energy_eV:   1.74087242E+01
eratio:   3.49131000E+02
ft_max_err_t2w_cos:   6.38219153E-03
ft_max_err_w2t_cos:   1.14787580E-03
ft_max_err_t2w_sin:   1.50083751E-01
cosft_duality_error:   8.97284421E-04
Minimax imaginary tau/omega mesh: !Tabular | # tau, weight(tau), omega, weight(omega)
    1 2.53375E-02   6.74311E-02   1.66076E-02   3.45830E-02
    2 1.57808E-01   2.17108E-01   5.86807E-02   5.34176E-02
    3 5.28612E-01   5.78154E-01   1.34592E-01   1.06612E-01
    4 1.47711E+00   1.43658E+00   2.98160E-01   2.41125E-01
    5 3.74596E+00   3.34429E+00   6.86904E-01   5.94038E-01
    6 8.86581E+00   7.38711E+00   1.69502E+00   1.60385E+00
    7 1.99618E+01   1.58622E+01   4.61578E+00   4.92740E+00
    8 4.42278E+01   3.60770E+01   1.51468E+01   2.10435E+01
...


 Computing chi0 head and wings with inclvkb: 2
 Using KS orbitals and KS energies...


 ==== FFT mesh for chi0 head/wings computation ====
  FFT mesh divisions ........................    36   36   36
  Augmented FFT divisions ...................    37   37   36
  FFT algorithm .............................   312
  FFT cache size ............................    16


 Building Green's functions from KS orbitals and KS energies...

        ecut_chi ecut_chi^(-3/2)     RPA Ec (eV)     RPA Ec (Ha)
  9.60000000E+00  3.36196471E-02 -1.27702541E+01 -4.69298222E-01
  1.02000000E+01  3.06972692E-02 -1.28115690E+01 -4.70816519E-01
  1.08000000E+01  2.81750287E-02 -1.28471948E+01 -4.72125741E-01
  1.14000000E+01  2.59802139E-02 -1.28772966E+01 -4.73231964E-01
  1.20000000E+01  2.40562612E-02 -1.29046351E+01 -4.74236636E-01
              oo               0 -1.32421567E+01 -4.86640327E-01

================================================================================
== DATASET  3 ==================================================================
-   mpi_nproc: 512, omp_nthreads: -1 (-1 if OMP is not activated)


--- !DatasetInfo
iteration_state: {dtset: 3, }
dimensions: {natom: 2, nkpt: 29, mband: 480, nsppol: 1, nspinor: 1, nspden: 1, mpw: 1700, }
cutoff_energies: {ecut:  40.0, pawecutdg:  -1.0, }
electrons: {nelect:   8.00000000E+00, charge:   0.00000000E+00, occopt:   1.00000000E+00, tsmear:   1.00000000E-02, }
meta: {optdriver: 6, }
...

 mkfilename: getwfk from: ../outdata_gs_DS2_WFK

 mkfilename: getden from: ../outdata_gs_DS1_DEN

 Exchange-correlation functional for the present dataset will be:
  GGA: Perdew-Burke-Ernzerhof functional - ixc=11
 Citation for XC functional:
  J.P.Perdew, K.Burke, M.Ernzerhof, PRL 77, 3865 (1996)

.Using single precision arithmetic; gwpc =  4

- Reading GS density from: ../outdata_gs_DS1_DEN



--------------------------------------------------------------------------------

 Total charge density [el/Bohr^3]
)     Maximum=    2.8063E-01  at reduced coord.    0.0556    0.0556    0.8611
)     Minimum=    1.4031E-03  at reduced coord.    0.2500    0.2500    0.2500
   Integrated=    8.0000E+00
- Reading GS states from WFK file: ../outdata_gs_DS2_WFK
  Mapping kBZ --> kIBZ
 Legend: bz = TS(ibz) + g0 where isym is the index of the symrec operation S and itim is 1 if TR is used.
        BZ                                       IBZ                                       ibz  isym  itim  g0
     1  [ 0.0000E+00,  0.0000E+00,  0.0000E+00]  [ 0.0000E+00,  0.0000E+00,  0.0000E+00]     1     1     0  [0, 0, 0]
     2  [ 1.2500E-01,  0.0000E+00,  0.0000E+00]  [ 1.2500E-01,  0.0000E+00,  0.0000E+00]     2     1     0  [0, 0, 0]
     3  [-1.2500E-01,  0.0000E+00,  0.0000E+00]  [ 1.2500E-01,  0.0000E+00,  0.0000E+00]     2     1     1  [0, 0, 0]
     4  [ 0.0000E+00,  0.0000E+00, -1.2500E-01]  [ 1.2500E-01,  0.0000E+00,  0.0000E+00]     2     2     1  [0, 0, 0]
     5  [ 0.0000E+00,  1.2500E-01,  0.0000E+00]  [ 1.2500E-01,  0.0000E+00,  0.0000E+00]     2     4     0  [0, 0, 0]
     6  [ 1.2500E-01,  1.2500E-01,  1.2500E-01]  [ 1.2500E-01,  0.0000E+00,  0.0000E+00]     2     3     1  [0, 0, 0]
     7  [-1.2500E-01, -1.2500E-01, -1.2500E-01]  [ 1.2500E-01,  0.0000E+00,  0.0000E+00]     2     3     0  [0, 0, 0]
     8  [ 0.0000E+00, -1.2500E-01,  0.0000E+00]  [ 1.2500E-01,  0.0000E+00,  0.0000E+00]     2     4     1  [0, 0, 0]
     9  [ 0.0000E+00,  0.0000E+00,  1.2500E-01]  [ 1.2500E-01,  0.0000E+00,  0.0000E+00]     2     2     0  [0, 0, 0]
    10  [ 2.5000E-01,  0.0000E+00,  0.0000E+00]  [ 2.5000E-01,  0.0000E+00,  0.0000E+00]     3     1     0  [0, 0, 0]
    11  [ 2.5000E-01,  2.5000E-01,  2.5000E-01]  [ 2.5000E-01,  0.0000E+00,  0.0000E+00]     3     3     1  [0, 0, 0]
    12  [ 0.0000E+00,  2.5000E-01,  0.0000E+00]  [ 2.5000E-01,  0.0000E+00,  0.0000E+00]     3     4     0  [0, 0, 0]
    13  [ 0.0000E+00, -2.5000E-01,  0.0000E+00]  [ 2.5000E-01,  0.0000E+00,  0.0000E+00]     3     4     1  [0, 0, 0]
    14  [-2.5000E-01,  0.0000E+00,  0.0000E+00]  [ 2.5000E-01,  0.0000E+00,  0.0000E+00]     3     1     1  [0, 0, 0]
    15  [ 0.0000E+00,  0.0000E+00,  2.5000E-01]  [ 2.5000E-01,  0.0000E+00,  0.0000E+00]     3     2     0  [0, 0, 0]
    16  [ 0.0000E+00,  0.0000E+00, -2.5000E-01]  [ 2.5000E-01,  0.0000E+00,  0.0000E+00]     3     2     1  [0, 0, 0]
    17  [-2.5000E-01, -2.5000E-01, -2.5000E-01]  [ 2.5000E-01,  0.0000E+00,  0.0000E+00]     3     3     0  [0, 0, 0]
    18  [ 3.7500E-01,  0.0000E+00,  0.0000E+00]  [ 3.7500E-01,  0.0000E+00,  0.0000E+00]     4     1     0  [0, 0, 0]
    19  [-3.7500E-01, -3.7500E-01, -3.7500E-01]  [ 3.7500E-01,  0.0000E+00,  0.0000E+00]     4     3     0  [0, 0, 0]
    20  [ 0.0000E+00,  0.0000E+00, -3.7500E-01]  [ 3.7500E-01,  0.0000E+00,  0.0000E+00]     4     2     1  [0, 0, 0]
prtvol = 0, max 20 points are written


  Mapping qBZ --> qIBZ
 Legend: bz = TS(ibz) + g0 where isym is the index of the symrec operation S and itim is 1 if TR is used.
        BZ                                       IBZ                                       ibz  isym  itim  g0
     1  [ 0.0000E+00,  0.0000E+00,  0.0000E+00]  [ 0.0000E+00,  0.0000E+00,  0.0000E+00]     1     1     0  [0, 0, 0]
     2  [ 1.2500E-01,  0.0000E+00,  0.0000E+00]  [ 1.2500E-01,  0.0000E+00,  0.0000E+00]     2     1     0  [0, 0, 0]
     3  [-1.2500E-01,  0.0000E+00,  0.0000E+00]  [ 1.2500E-01,  0.0000E+00,  0.0000E+00]     2     1     1  [0, 0, 0]
     4  [ 0.0000E+00,  0.0000E+00, -1.2500E-01]  [ 1.2500E-01,  0.0000E+00,  0.0000E+00]     2     2     1  [0, 0, 0]
     5  [ 0.0000E+00,  1.2500E-01,  0.0000E+00]  [ 1.2500E-01,  0.0000E+00,  0.0000E+00]     2     4     0  [0, 0, 0]
     6  [ 1.2500E-01,  1.2500E-01,  1.2500E-01]  [ 1.2500E-01,  0.0000E+00,  0.0000E+00]     2     3     1  [0, 0, 0]
     7  [-1.2500E-01, -1.2500E-01, -1.2500E-01]  [ 1.2500E-01,  0.0000E+00,  0.0000E+00]     2     3     0  [0, 0, 0]
     8  [ 0.0000E+00, -1.2500E-01,  0.0000E+00]  [ 1.2500E-01,  0.0000E+00,  0.0000E+00]     2     4     1  [0, 0, 0]
     9  [ 0.0000E+00,  0.0000E+00,  1.2500E-01]  [ 1.2500E-01,  0.0000E+00,  0.0000E+00]     2     2     0  [0, 0, 0]
    10  [ 2.5000E-01,  0.0000E+00,  0.0000E+00]  [ 2.5000E-01,  0.0000E+00,  0.0000E+00]     3     1     0  [0, 0, 0]
    11  [ 2.5000E-01,  2.5000E-01,  2.5000E-01]  [ 2.5000E-01,  0.0000E+00,  0.0000E+00]     3     3     1  [0, 0, 0]
    12  [ 0.0000E+00,  2.5000E-01,  0.0000E+00]  [ 2.5000E-01,  0.0000E+00,  0.0000E+00]     3     4     0  [0, 0, 0]
    13  [ 0.0000E+00, -2.5000E-01,  0.0000E+00]  [ 2.5000E-01,  0.0000E+00,  0.0000E+00]     3     4     1  [0, 0, 0]
    14  [-2.5000E-01,  0.0000E+00,  0.0000E+00]  [ 2.5000E-01,  0.0000E+00,  0.0000E+00]     3     1     1  [0, 0, 0]
    15  [ 0.0000E+00,  0.0000E+00,  2.5000E-01]  [ 2.5000E-01,  0.0000E+00,  0.0000E+00]     3     2     0  [0, 0, 0]
    16  [ 0.0000E+00,  0.0000E+00, -2.5000E-01]  [ 2.5000E-01,  0.0000E+00,  0.0000E+00]     3     2     1  [0, 0, 0]
    17  [-2.5000E-01, -2.5000E-01, -2.5000E-01]  [ 2.5000E-01,  0.0000E+00,  0.0000E+00]     3     3     0  [0, 0, 0]
    18  [ 3.7500E-01,  0.0000E+00,  0.0000E+00]  [ 3.7500E-01,  0.0000E+00,  0.0000E+00]     4     1     0  [0, 0, 0]
    19  [-3.7500E-01, -3.7500E-01, -3.7500E-01]  [ 3.7500E-01,  0.0000E+00,  0.0000E+00]     4     3     0  [0, 0, 0]
    20  [ 0.0000E+00,  0.0000E+00, -3.7500E-01]  [ 3.7500E-01,  0.0000E+00,  0.0000E+00]     4     2     1  [0, 0, 0]
prtvol = 0, max 20 points are written



 === Kohn-Sham gaps and band edges from IBZ mesh ===
 Indirect band gap semiconductor
 Fundamental gap:     1.357 (eV)
   VBM:    -0.678 (eV) at k: [ 0.0000E+00,  0.0000E+00,  0.0000E+00]
   CBM:     0.678 (eV) at k: [ 5.0000E-01,  5.0000E-01,  0.0000E+00]
 Direct gap:         4.559 (eV) at k: [ 5.0000E-01,  5.0000E-01,  0.0000E+00]


 ==== FFT mesh for Green's function ====
  FFT mesh divisions ........................    18   18   18
  Augmented FFT divisions ...................    18   18   18
  FFT algorithm .............................   312
  FFT cache size ............................    16
- FFT uc_batch_size: 4
- FFT sc_batch_size: 4
 ==== Info on the GWR object ====

--- !GWR_params
iteration_state: {dtset: 3, }
gwr_task: RPA_ENERGY
nband: 480
ntau: 10
ngkpt: [8, 8, 8, ]
ngqpt: [8, 8, 8, ]
chi_algo: supercell
sigma_algo: 'BZ-convolutions'
nkibz: 29
nqibz: 29
inclvkb: 2
q0: [  1.00000000E-05,   2.00000000E-05,   3.00000000E-05, ]
gw_icutcoul: 6
green_mpw: 1700
tchi_mpw: 290
g_ngfft: [18, 18, 18, 18, 18, 18, ]
P gwr_np_kgts: [4, 64, 2, 1, ]
P np_kibz: [
    1, 1, 1, 1, 1, 1, 1, 1, 
    1, 2, 1, 1, 1, 1, 1, 1, 
    2, 1, 1, 1, 1, 1, 1, 2, 
    1, 1, 1, 1, 1, 
]
P np_qibz: [
    1, 1, 1, 1, 1, 1, 1, 1, 
    1, 2, 1, 1, 1, 1, 1, 1, 
    2, 1, 1, 1, 1, 1, 1, 2, 
    1, 1, 1, 1, 1, 
]
min_transition_energy_eV:   4.98630147E-02
max_transition_energy_eV:   1.74087242E+01
eratio:   3.49131000E+02
ft_max_err_t2w_cos:   1.88560866E-03
ft_max_err_w2t_cos:   3.87118555E-04
ft_max_err_t2w_sin:   4.26322187E-02
cosft_duality_error:   4.28123447E-04
Minimax imaginary tau/omega mesh: !Tabular | # tau, weight(tau), omega, weight(omega)
    1 1.93806E-02   5.07417E-02   1.40629E-02   2.89454E-02
    2 1.11831E-01   1.41657E-01   4.73640E-02   3.97338E-02
    3 3.28654E-01   3.12057E-01   9.89455E-02   6.70461E-02
    4 7.95728E-01   6.64062E-01   1.91715E-01   1.25724E-01
    5 1.77424E+00   1.37273E+00   3.71789E-01   2.49976E-01
    6 3.76019E+00   2.74612E+00   7.39132E-01   5.20112E-01
    7 7.66632E+00   5.33307E+00   1.52359E+00   1.13450E+00
    8 1.51555E+01   1.01384E+01   3.29059E+00   2.62694E+00
    9 2.93537E+01   1.92832E+01   7.60785E+00   6.76901E+00
    10 5.72897E+01   3.99864E+01   2.09397E+01   2.58227E+01
...


 Computing chi0 head and wings with inclvkb: 2
 Using KS orbitals and KS energies...


 ==== FFT mesh for chi0 head/wings computation ====
  FFT mesh divisions ........................    36   36   36
  Augmented FFT divisions ...................    37   37   36
  FFT algorithm .............................   312
  FFT cache size ............................    16


 Building Green's functions from KS orbitals and KS energies...

        ecut_chi ecut_chi^(-3/2)     RPA Ec (eV)     RPA Ec (Ha)
  9.60000000E+00  3.36196471E-02 -1.27702850E+01 -4.69299360E-01
  1.02000000E+01  3.06972692E-02 -1.28116127E+01 -4.70818125E-01
  1.08000000E+01  2.81750287E-02 -1.28472491E+01 -4.72127737E-01
  1.14000000E+01  2.59802139E-02 -1.28773579E+01 -4.73234215E-01
  1.20000000E+01  2.40562612E-02 -1.29046992E+01 -4.74238988E-01
              oo               0 -1.32423088E+01 -4.86645916E-01

================================================================================
== DATASET  4 ==================================================================
-   mpi_nproc: 512, omp_nthreads: -1 (-1 if OMP is not activated)


--- !DatasetInfo
iteration_state: {dtset: 4, }
dimensions: {natom: 2, nkpt: 29, mband: 480, nsppol: 1, nspinor: 1, nspden: 1, mpw: 1700, }
cutoff_energies: {ecut:  40.0, pawecutdg:  -1.0, }
electrons: {nelect:   8.00000000E+00, charge:   0.00000000E+00, occopt:   1.00000000E+00, tsmear:   1.00000000E-02, }
meta: {optdriver: 6, }
...

 mkfilename: getwfk from: ../outdata_gs_DS2_WFK

 mkfilename: getden from: ../outdata_gs_DS1_DEN

 Exchange-correlation functional for the present dataset will be:
  GGA: Perdew-Burke-Ernzerhof functional - ixc=11
 Citation for XC functional:
  J.P.Perdew, K.Burke, M.Ernzerhof, PRL 77, 3865 (1996)

.Using single precision arithmetic; gwpc =  4

- Reading GS density from: ../outdata_gs_DS1_DEN



--------------------------------------------------------------------------------

 Total charge density [el/Bohr^3]
)     Maximum=    2.8063E-01  at reduced coord.    0.0556    0.0556    0.8611
)     Minimum=    1.4031E-03  at reduced coord.    0.2500    0.2500    0.2500
   Integrated=    8.0000E+00
- Reading GS states from WFK file: ../outdata_gs_DS2_WFK
  Mapping kBZ --> kIBZ
 Legend: bz = TS(ibz) + g0 where isym is the index of the symrec operation S and itim is 1 if TR is used.
        BZ                                       IBZ                                       ibz  isym  itim  g0
     1  [ 0.0000E+00,  0.0000E+00,  0.0000E+00]  [ 0.0000E+00,  0.0000E+00,  0.0000E+00]     1     1     0  [0, 0, 0]
     2  [ 1.2500E-01,  0.0000E+00,  0.0000E+00]  [ 1.2500E-01,  0.0000E+00,  0.0000E+00]     2     1     0  [0, 0, 0]
     3  [-1.2500E-01,  0.0000E+00,  0.0000E+00]  [ 1.2500E-01,  0.0000E+00,  0.0000E+00]     2     1     1  [0, 0, 0]
     4  [ 0.0000E+00,  0.0000E+00, -1.2500E-01]  [ 1.2500E-01,  0.0000E+00,  0.0000E+00]     2     2     1  [0, 0, 0]
     5  [ 0.0000E+00,  1.2500E-01,  0.0000E+00]  [ 1.2500E-01,  0.0000E+00,  0.0000E+00]     2     4     0  [0, 0, 0]
     6  [ 1.2500E-01,  1.2500E-01,  1.2500E-01]  [ 1.2500E-01,  0.0000E+00,  0.0000E+00]     2     3     1  [0, 0, 0]
     7  [-1.2500E-01, -1.2500E-01, -1.2500E-01]  [ 1.2500E-01,  0.0000E+00,  0.0000E+00]     2     3     0  [0, 0, 0]
     8  [ 0.0000E+00, -1.2500E-01,  0.0000E+00]  [ 1.2500E-01,  0.0000E+00,  0.0000E+00]     2     4     1  [0, 0, 0]
     9  [ 0.0000E+00,  0.0000E+00,  1.2500E-01]  [ 1.2500E-01,  0.0000E+00,  0.0000E+00]     2     2     0  [0, 0, 0]
    10  [ 2.5000E-01,  0.0000E+00,  0.0000E+00]  [ 2.5000E-01,  0.0000E+00,  0.0000E+00]     3     1     0  [0, 0, 0]
    11  [ 2.5000E-01,  2.5000E-01,  2.5000E-01]  [ 2.5000E-01,  0.0000E+00,  0.0000E+00]     3     3     1  [0, 0, 0]
    12  [ 0.0000E+00,  2.5000E-01,  0.0000E+00]  [ 2.5000E-01,  0.0000E+00,  0.0000E+00]     3     4     0  [0, 0, 0]
    13  [ 0.0000E+00, -2.5000E-01,  0.0000E+00]  [ 2.5000E-01,  0.0000E+00,  0.0000E+00]     3     4     1  [0, 0, 0]
    14  [-2.5000E-01,  0.0000E+00,  0.0000E+00]  [ 2.5000E-01,  0.0000E+00,  0.0000E+00]     3     1     1  [0, 0, 0]
    15  [ 0.0000E+00,  0.0000E+00,  2.5000E-01]  [ 2.5000E-01,  0.0000E+00,  0.0000E+00]     3     2     0  [0, 0, 0]
    16  [ 0.0000E+00,  0.0000E+00, -2.5000E-01]  [ 2.5000E-01,  0.0000E+00,  0.0000E+00]     3     2     1  [0, 0, 0]
    17  [-2.5000E-01, -2.5000E-01, -2.5000E-01]  [ 2.5000E-01,  0.0000E+00,  0.0000E+00]     3     3     0  [0, 0, 0]
    18  [ 3.7500E-01,  0.0000E+00,  0.0000E+00]  [ 3.7500E-01,  0.0000E+00,  0.0000E+00]     4     1     0  [0, 0, 0]
    19  [-3.7500E-01, -3.7500E-01, -3.7500E-01]  [ 3.7500E-01,  0.0000E+00,  0.0000E+00]     4     3     0  [0, 0, 0]
    20  [ 0.0000E+00,  0.0000E+00, -3.7500E-01]  [ 3.7500E-01,  0.0000E+00,  0.0000E+00]     4     2     1  [0, 0, 0]
prtvol = 0, max 20 points are written


  Mapping qBZ --> qIBZ
 Legend: bz = TS(ibz) + g0 where isym is the index of the symrec operation S and itim is 1 if TR is used.
        BZ                                       IBZ                                       ibz  isym  itim  g0
     1  [ 0.0000E+00,  0.0000E+00,  0.0000E+00]  [ 0.0000E+00,  0.0000E+00,  0.0000E+00]     1     1     0  [0, 0, 0]
     2  [ 1.2500E-01,  0.0000E+00,  0.0000E+00]  [ 1.2500E-01,  0.0000E+00,  0.0000E+00]     2     1     0  [0, 0, 0]
     3  [-1.2500E-01,  0.0000E+00,  0.0000E+00]  [ 1.2500E-01,  0.0000E+00,  0.0000E+00]     2     1     1  [0, 0, 0]
     4  [ 0.0000E+00,  0.0000E+00, -1.2500E-01]  [ 1.2500E-01,  0.0000E+00,  0.0000E+00]     2     2     1  [0, 0, 0]
     5  [ 0.0000E+00,  1.2500E-01,  0.0000E+00]  [ 1.2500E-01,  0.0000E+00,  0.0000E+00]     2     4     0  [0, 0, 0]
     6  [ 1.2500E-01,  1.2500E-01,  1.2500E-01]  [ 1.2500E-01,  0.0000E+00,  0.0000E+00]     2     3     1  [0, 0, 0]
     7  [-1.2500E-01, -1.2500E-01, -1.2500E-01]  [ 1.2500E-01,  0.0000E+00,  0.0000E+00]     2     3     0  [0, 0, 0]
     8  [ 0.0000E+00, -1.2500E-01,  0.0000E+00]  [ 1.2500E-01,  0.0000E+00,  0.0000E+00]     2     4     1  [0, 0, 0]
     9  [ 0.0000E+00,  0.0000E+00,  1.2500E-01]  [ 1.2500E-01,  0.0000E+00,  0.0000E+00]     2     2     0  [0, 0, 0]
    10  [ 2.5000E-01,  0.0000E+00,  0.0000E+00]  [ 2.5000E-01,  0.0000E+00,  0.0000E+00]     3     1     0  [0, 0, 0]
    11  [ 2.5000E-01,  2.5000E-01,  2.5000E-01]  [ 2.5000E-01,  0.0000E+00,  0.0000E+00]     3     3     1  [0, 0, 0]
    12  [ 0.0000E+00,  2.5000E-01,  0.0000E+00]  [ 2.5000E-01,  0.0000E+00,  0.0000E+00]     3     4     0  [0, 0, 0]
    13  [ 0.0000E+00, -2.5000E-01,  0.0000E+00]  [ 2.5000E-01,  0.0000E+00,  0.0000E+00]     3     4     1  [0, 0, 0]
    14  [-2.5000E-01,  0.0000E+00,  0.0000E+00]  [ 2.5000E-01,  0.0000E+00,  0.0000E+00]     3     1     1  [0, 0, 0]
    15  [ 0.0000E+00,  0.0000E+00,  2.5000E-01]  [ 2.5000E-01,  0.0000E+00,  0.0000E+00]     3     2     0  [0, 0, 0]
    16  [ 0.0000E+00,  0.0000E+00, -2.5000E-01]  [ 2.5000E-01,  0.0000E+00,  0.0000E+00]     3     2     1  [0, 0, 0]
    17  [-2.5000E-01, -2.5000E-01, -2.5000E-01]  [ 2.5000E-01,  0.0000E+00,  0.0000E+00]     3     3     0  [0, 0, 0]
    18  [ 3.7500E-01,  0.0000E+00,  0.0000E+00]  [ 3.7500E-01,  0.0000E+00,  0.0000E+00]     4     1     0  [0, 0, 0]
    19  [-3.7500E-01, -3.7500E-01, -3.7500E-01]  [ 3.7500E-01,  0.0000E+00,  0.0000E+00]     4     3     0  [0, 0, 0]
    20  [ 0.0000E+00,  0.0000E+00, -3.7500E-01]  [ 3.7500E-01,  0.0000E+00,  0.0000E+00]     4     2     1  [0, 0, 0]
prtvol = 0, max 20 points are written



 === Kohn-Sham gaps and band edges from IBZ mesh ===
 Indirect band gap semiconductor
 Fundamental gap:     1.357 (eV)
   VBM:    -0.678 (eV) at k: [ 0.0000E+00,  0.0000E+00,  0.0000E+00]
   CBM:     0.678 (eV) at k: [ 5.0000E-01,  5.0000E-01,  0.0000E+00]
 Direct gap:         4.559 (eV) at k: [ 5.0000E-01,  5.0000E-01,  0.0000E+00]


 ==== FFT mesh for Green's function ====
  FFT mesh divisions ........................    18   18   18
  Augmented FFT divisions ...................    18   18   18
  FFT algorithm .............................   312
  FFT cache size ............................    16
- FFT uc_batch_size: 4
- FFT sc_batch_size: 4
 ==== Info on the GWR object ====

--- !GWR_params
iteration_state: {dtset: 4, }
gwr_task: RPA_ENERGY
nband: 480
ntau: 12
ngkpt: [8, 8, 8, ]
ngqpt: [8, 8, 8, ]
chi_algo: supercell
sigma_algo: 'BZ-convolutions'
nkibz: 29
nqibz: 29
inclvkb: 2
q0: [  1.00000000E-05,   2.00000000E-05,   3.00000000E-05, ]
gw_icutcoul: 6
green_mpw: 1700
tchi_mpw: 290
g_ngfft: [18, 18, 18, 18, 18, 18, ]
P gwr_np_kgts: [4, 64, 2, 1, ]
P np_kibz: [
    1, 1, 1, 1, 1, 1, 1, 1, 
    1, 2, 1, 1, 1, 1, 1, 1, 
    2, 1, 1, 1, 1, 1, 1, 2, 
    1, 1, 1, 1, 1, 
]
P np_qibz: [
    1, 1, 1, 1, 1, 1, 1, 1, 
    1, 2, 1, 1, 1, 1, 1, 1, 
    2, 1, 1, 1, 1, 1, 1, 2, 
    1, 1, 1, 1, 1, 
]
min_transition_energy_eV:   4.98630147E-02
max_transition_energy_eV:   1.74087242E+01
eratio:   3.49131000E+02
ft_max_err_t2w_cos:   6.22605444E-04
ft_max_err_w2t_cos:   2.99596688E-05
ft_max_err_t2w_sin:   1.18449685E-02
cosft_duality_error:   1.90666745E-03
Minimax imaginary tau/omega mesh: !Tabular | # tau, weight(tau), omega, weight(omega)
    1 1.57352E-02   4.08995E-02   1.22215E-02   2.49754E-02
    2 8.77599E-02   1.06737E-01   3.99784E-02   3.18047E-02
    3 2.41109E-01   2.08985E-01   7.89233E-02   4.80226E-02
    4 5.32353E-01   3.92002E-01   1.41119E-01   7.97225E-02
    5 1.07571E+00   7.28183E-01   2.47514E-01   1.39244E-01
    6 2.07747E+00   1.33301E+00   4.36828E-01   2.51220E-01
    7 3.89307E+00   2.39583E+00   7.83557E-01   4.65696E-01
    8 7.12391E+00   4.22970E+00   1.43610E+00   8.87627E-01
    9 1.27801E+01   7.35904E+00   2.70209E+00   1.74907E+00
    10 2.25758E+01   1.27194E+01   5.26179E+00   3.62545E+00
    11 3.96009E+01   2.23360E+01   1.08791E+01   8.47498E+00
    12 7.07901E+01   4.34595E+01   2.71539E+01   3.14020E+01
...


 Computing chi0 head and wings with inclvkb: 2
 Using KS orbitals and KS energies...


 ==== FFT mesh for chi0 head/wings computation ====
  FFT mesh divisions ........................    36   36   36
  Augmented FFT divisions ...................    37   37   36
  FFT algorithm .............................   312
  FFT cache size ............................    16


 Building Green's functions from KS orbitals and KS energies...

        ecut_chi ecut_chi^(-3/2)     RPA Ec (eV)     RPA Ec (Ha)
  9.60000000E+00  3.36196471E-02 -1.27702855E+01 -4.69299376E-01
  1.02000000E+01  3.06972692E-02 -1.28116127E+01 -4.70818123E-01
  1.08000000E+01  2.81750287E-02 -1.28472492E+01 -4.72127742E-01
  1.14000000E+01  2.59802139E-02 -1.28773581E+01 -4.73234224E-01
  1.20000000E+01  2.40562612E-02 -1.29047004E+01 -4.74239033E-01
              oo               0 -1.32423113E+01 -4.86646005E-01

================================================================================
== DATASET  5 ==================================================================
-   mpi_nproc: 512, omp_nthreads: -1 (-1 if OMP is not activated)


--- !DatasetInfo
iteration_state: {dtset: 5, }
dimensions: {natom: 2, nkpt: 29, mband: 480, nsppol: 1, nspinor: 1, nspden: 1, mpw: 1700, }
cutoff_energies: {ecut:  40.0, pawecutdg:  -1.0, }
electrons: {nelect:   8.00000000E+00, charge:   0.00000000E+00, occopt:   1.00000000E+00, tsmear:   1.00000000E-02, }
meta: {optdriver: 6, }
...

 mkfilename: getwfk from: ../outdata_gs_DS2_WFK

 mkfilename: getden from: ../outdata_gs_DS1_DEN

 Exchange-correlation functional for the present dataset will be:
  GGA: Perdew-Burke-Ernzerhof functional - ixc=11
 Citation for XC functional:
  J.P.Perdew, K.Burke, M.Ernzerhof, PRL 77, 3865 (1996)

.Using single precision arithmetic; gwpc =  4

- Reading GS density from: ../outdata_gs_DS1_DEN



--------------------------------------------------------------------------------

 Total charge density [el/Bohr^3]
)     Maximum=    2.8063E-01  at reduced coord.    0.0556    0.0556    0.8611
)     Minimum=    1.4031E-03  at reduced coord.    0.2500    0.2500    0.2500
   Integrated=    8.0000E+00
- Reading GS states from WFK file: ../outdata_gs_DS2_WFK
  Mapping kBZ --> kIBZ
 Legend: bz = TS(ibz) + g0 where isym is the index of the symrec operation S and itim is 1 if TR is used.
        BZ                                       IBZ                                       ibz  isym  itim  g0
     1  [ 0.0000E+00,  0.0000E+00,  0.0000E+00]  [ 0.0000E+00,  0.0000E+00,  0.0000E+00]     1     1     0  [0, 0, 0]
     2  [ 1.2500E-01,  0.0000E+00,  0.0000E+00]  [ 1.2500E-01,  0.0000E+00,  0.0000E+00]     2     1     0  [0, 0, 0]
     3  [-1.2500E-01,  0.0000E+00,  0.0000E+00]  [ 1.2500E-01,  0.0000E+00,  0.0000E+00]     2     1     1  [0, 0, 0]
     4  [ 0.0000E+00,  0.0000E+00, -1.2500E-01]  [ 1.2500E-01,  0.0000E+00,  0.0000E+00]     2     2     1  [0, 0, 0]
     5  [ 0.0000E+00,  1.2500E-01,  0.0000E+00]  [ 1.2500E-01,  0.0000E+00,  0.0000E+00]     2     4     0  [0, 0, 0]
     6  [ 1.2500E-01,  1.2500E-01,  1.2500E-01]  [ 1.2500E-01,  0.0000E+00,  0.0000E+00]     2     3     1  [0, 0, 0]
     7  [-1.2500E-01, -1.2500E-01, -1.2500E-01]  [ 1.2500E-01,  0.0000E+00,  0.0000E+00]     2     3     0  [0, 0, 0]
     8  [ 0.0000E+00, -1.2500E-01,  0.0000E+00]  [ 1.2500E-01,  0.0000E+00,  0.0000E+00]     2     4     1  [0, 0, 0]
     9  [ 0.0000E+00,  0.0000E+00,  1.2500E-01]  [ 1.2500E-01,  0.0000E+00,  0.0000E+00]     2     2     0  [0, 0, 0]
    10  [ 2.5000E-01,  0.0000E+00,  0.0000E+00]  [ 2.5000E-01,  0.0000E+00,  0.0000E+00]     3     1     0  [0, 0, 0]
    11  [ 2.5000E-01,  2.5000E-01,  2.5000E-01]  [ 2.5000E-01,  0.0000E+00,  0.0000E+00]     3     3     1  [0, 0, 0]
    12  [ 0.0000E+00,  2.5000E-01,  0.0000E+00]  [ 2.5000E-01,  0.0000E+00,  0.0000E+00]     3     4     0  [0, 0, 0]
    13  [ 0.0000E+00, -2.5000E-01,  0.0000E+00]  [ 2.5000E-01,  0.0000E+00,  0.0000E+00]     3     4     1  [0, 0, 0]
    14  [-2.5000E-01,  0.0000E+00,  0.0000E+00]  [ 2.5000E-01,  0.0000E+00,  0.0000E+00]     3     1     1  [0, 0, 0]
    15  [ 0.0000E+00,  0.0000E+00,  2.5000E-01]  [ 2.5000E-01,  0.0000E+00,  0.0000E+00]     3     2     0  [0, 0, 0]
    16  [ 0.0000E+00,  0.0000E+00, -2.5000E-01]  [ 2.5000E-01,  0.0000E+00,  0.0000E+00]     3     2     1  [0, 0, 0]
    17  [-2.5000E-01, -2.5000E-01, -2.5000E-01]  [ 2.5000E-01,  0.0000E+00,  0.0000E+00]     3     3     0  [0, 0, 0]
    18  [ 3.7500E-01,  0.0000E+00,  0.0000E+00]  [ 3.7500E-01,  0.0000E+00,  0.0000E+00]     4     1     0  [0, 0, 0]
    19  [-3.7500E-01, -3.7500E-01, -3.7500E-01]  [ 3.7500E-01,  0.0000E+00,  0.0000E+00]     4     3     0  [0, 0, 0]
    20  [ 0.0000E+00,  0.0000E+00, -3.7500E-01]  [ 3.7500E-01,  0.0000E+00,  0.0000E+00]     4     2     1  [0, 0, 0]
prtvol = 0, max 20 points are written


  Mapping qBZ --> qIBZ
 Legend: bz = TS(ibz) + g0 where isym is the index of the symrec operation S and itim is 1 if TR is used.
        BZ                                       IBZ                                       ibz  isym  itim  g0
     1  [ 0.0000E+00,  0.0000E+00,  0.0000E+00]  [ 0.0000E+00,  0.0000E+00,  0.0000E+00]     1     1     0  [0, 0, 0]
     2  [ 1.2500E-01,  0.0000E+00,  0.0000E+00]  [ 1.2500E-01,  0.0000E+00,  0.0000E+00]     2     1     0  [0, 0, 0]
     3  [-1.2500E-01,  0.0000E+00,  0.0000E+00]  [ 1.2500E-01,  0.0000E+00,  0.0000E+00]     2     1     1  [0, 0, 0]
     4  [ 0.0000E+00,  0.0000E+00, -1.2500E-01]  [ 1.2500E-01,  0.0000E+00,  0.0000E+00]     2     2     1  [0, 0, 0]
     5  [ 0.0000E+00,  1.2500E-01,  0.0000E+00]  [ 1.2500E-01,  0.0000E+00,  0.0000E+00]     2     4     0  [0, 0, 0]
     6  [ 1.2500E-01,  1.2500E-01,  1.2500E-01]  [ 1.2500E-01,  0.0000E+00,  0.0000E+00]     2     3     1  [0, 0, 0]
     7  [-1.2500E-01, -1.2500E-01, -1.2500E-01]  [ 1.2500E-01,  0.0000E+00,  0.0000E+00]     2     3     0  [0, 0, 0]
     8  [ 0.0000E+00, -1.2500E-01,  0.0000E+00]  [ 1.2500E-01,  0.0000E+00,  0.0000E+00]     2     4     1  [0, 0, 0]
     9  [ 0.0000E+00,  0.0000E+00,  1.2500E-01]  [ 1.2500E-01,  0.0000E+00,  0.0000E+00]     2     2     0  [0, 0, 0]
    10  [ 2.5000E-01,  0.0000E+00,  0.0000E+00]  [ 2.5000E-01,  0.0000E+00,  0.0000E+00]     3     1     0  [0, 0, 0]
    11  [ 2.5000E-01,  2.5000E-01,  2.5000E-01]  [ 2.5000E-01,  0.0000E+00,  0.0000E+00]     3     3     1  [0, 0, 0]
    12  [ 0.0000E+00,  2.5000E-01,  0.0000E+00]  [ 2.5000E-01,  0.0000E+00,  0.0000E+00]     3     4     0  [0, 0, 0]
    13  [ 0.0000E+00, -2.5000E-01,  0.0000E+00]  [ 2.5000E-01,  0.0000E+00,  0.0000E+00]     3     4     1  [0, 0, 0]
    14  [-2.5000E-01,  0.0000E+00,  0.0000E+00]  [ 2.5000E-01,  0.0000E+00,  0.0000E+00]     3     1     1  [0, 0, 0]
    15  [ 0.0000E+00,  0.0000E+00,  2.5000E-01]  [ 2.5000E-01,  0.0000E+00,  0.0000E+00]     3     2     0  [0, 0, 0]
    16  [ 0.0000E+00,  0.0000E+00, -2.5000E-01]  [ 2.5000E-01,  0.0000E+00,  0.0000E+00]     3     2     1  [0, 0, 0]
    17  [-2.5000E-01, -2.5000E-01, -2.5000E-01]  [ 2.5000E-01,  0.0000E+00,  0.0000E+00]     3     3     0  [0, 0, 0]
    18  [ 3.7500E-01,  0.0000E+00,  0.0000E+00]  [ 3.7500E-01,  0.0000E+00,  0.0000E+00]     4     1     0  [0, 0, 0]
    19  [-3.7500E-01, -3.7500E-01, -3.7500E-01]  [ 3.7500E-01,  0.0000E+00,  0.0000E+00]     4     3     0  [0, 0, 0]
    20  [ 0.0000E+00,  0.0000E+00, -3.7500E-01]  [ 3.7500E-01,  0.0000E+00,  0.0000E+00]     4     2     1  [0, 0, 0]
prtvol = 0, max 20 points are written



 === Kohn-Sham gaps and band edges from IBZ mesh ===
 Indirect band gap semiconductor
 Fundamental gap:     1.357 (eV)
   VBM:    -0.678 (eV) at k: [ 0.0000E+00,  0.0000E+00,  0.0000E+00]
   CBM:     0.678 (eV) at k: [ 5.0000E-01,  5.0000E-01,  0.0000E+00]
 Direct gap:         4.559 (eV) at k: [ 5.0000E-01,  5.0000E-01,  0.0000E+00]


 ==== FFT mesh for Green's function ====
  FFT mesh divisions ........................    18   18   18
  Augmented FFT divisions ...................    18   18   18
  FFT algorithm .............................   312
  FFT cache size ............................    16
- FFT uc_batch_size: 4
- FFT sc_batch_size: 4
 ==== Info on the GWR object ====

--- !GWR_params
iteration_state: {dtset: 5, }
gwr_task: RPA_ENERGY
nband: 480
ntau: 14
ngkpt: [8, 8, 8, ]
ngqpt: [8, 8, 8, ]
chi_algo: supercell
sigma_algo: 'BZ-convolutions'
nkibz: 29
nqibz: 29
[...]
                       0.000000  0.000000  0.000000  0.000000  0.000000  0.000000
                       0.000000  0.000000  0.000000  0.000000  0.000000  0.000000
                       0.000000  0.000000  0.000000  0.000000  0.000000  0.000000
                       0.000000  0.000000  0.000000  0.000000  0.000000  0.000000
                       0.000000  0.000000  0.000000  0.000000  0.000000  0.000000
                       0.000000  0.000000  0.000000  0.000000  0.000000  0.000000
                       0.000000  0.000000  0.000000  0.000000  0.000000  0.000000
                       0.000000  0.000000  0.000000  0.000000  0.000000  0.000000
                       0.000000  0.000000  0.000000  0.000000  0.000000  0.000000
                       0.000000  0.000000  0.000000  0.000000  0.000000  0.000000
                       0.000000  0.000000  0.000000  0.000000  0.000000  0.000000
                       0.000000  0.000000  0.000000  0.000000  0.000000  0.000000
                       0.000000  0.000000  0.000000  0.000000  0.000000  0.000000
                       0.000000  0.000000  0.000000  0.000000  0.000000  0.000000
                       0.000000  0.000000  0.000000  0.000000  0.000000  0.000000
                       0.000000  0.000000  0.000000  0.000000  0.000000  0.000000
                       0.000000  0.000000  0.000000  0.000000  0.000000  0.000000
                       0.000000  0.000000  0.000000  0.000000  0.000000  0.000000
                       0.000000  0.000000  0.000000  0.000000  0.000000  0.000000
                       0.000000  0.000000  0.000000  0.000000  0.000000  0.000000
                       0.000000  0.000000  0.000000  0.000000  0.000000  0.000000
                       0.000000  0.000000  0.000000  0.000000  0.000000  0.000000
                       0.000000  0.000000  0.000000  0.000000  0.000000  0.000000
                       0.000000  0.000000  0.000000  0.000000  0.000000  0.000000
                       0.000000  0.000000  0.000000  0.000000  0.000000  0.000000
                       0.000000  0.000000  0.000000  0.000000  0.000000  0.000000
                       0.000000  0.000000  0.000000  0.000000  0.000000  0.000000
                       0.000000  0.000000  0.000000  0.000000  0.000000  0.000000
                       0.000000  0.000000  0.000000  0.000000  0.000000  0.000000
                       0.000000  0.000000  0.000000  0.000000  0.000000  0.000000
                       0.000000  0.000000  0.000000  0.000000  0.000000  0.000000
                       0.000000  0.000000  0.000000  0.000000  0.000000  0.000000
                       0.000000  0.000000  0.000000  0.000000  0.000000  0.000000
                       0.000000  0.000000  0.000000  0.000000  0.000000  0.000000
        optdriver           6
            rprim      0.0000000000E+00  5.0000000000E-01  5.0000000000E-01
                       5.0000000000E-01  0.0000000000E+00  5.0000000000E-01
                       5.0000000000E-01  5.0000000000E-01  0.0000000000E+00
          spgroup         216
           strten1     0.0000000000E+00  0.0000000000E+00  0.0000000000E+00
                       0.0000000000E+00  0.0000000000E+00  0.0000000000E+00
           strten2     0.0000000000E+00  0.0000000000E+00  0.0000000000E+00
                       0.0000000000E+00  0.0000000000E+00  0.0000000000E+00
           strten3     0.0000000000E+00  0.0000000000E+00  0.0000000000E+00
                       0.0000000000E+00  0.0000000000E+00  0.0000000000E+00
           strten4     0.0000000000E+00  0.0000000000E+00  0.0000000000E+00
                       0.0000000000E+00  0.0000000000E+00  0.0000000000E+00
           strten5     0.0000000000E+00  0.0000000000E+00  0.0000000000E+00
                       0.0000000000E+00  0.0000000000E+00  0.0000000000E+00
           strten6     0.0000000000E+00  0.0000000000E+00  0.0000000000E+00
                       0.0000000000E+00  0.0000000000E+00  0.0000000000E+00
           strten7     0.0000000000E+00  0.0000000000E+00  0.0000000000E+00
                       0.0000000000E+00  0.0000000000E+00  0.0000000000E+00
           strten8     0.0000000000E+00  0.0000000000E+00  0.0000000000E+00
                       0.0000000000E+00  0.0000000000E+00  0.0000000000E+00
           strten9     0.0000000000E+00  0.0000000000E+00  0.0000000000E+00
                       0.0000000000E+00  0.0000000000E+00  0.0000000000E+00
           strten10    0.0000000000E+00  0.0000000000E+00  0.0000000000E+00
                       0.0000000000E+00  0.0000000000E+00  0.0000000000E+00
           strten11    0.0000000000E+00  0.0000000000E+00  0.0000000000E+00
                       0.0000000000E+00  0.0000000000E+00  0.0000000000E+00
           strten12    0.0000000000E+00  0.0000000000E+00  0.0000000000E+00
                       0.0000000000E+00  0.0000000000E+00  0.0000000000E+00
           strten13    0.0000000000E+00  0.0000000000E+00  0.0000000000E+00
                       0.0000000000E+00  0.0000000000E+00  0.0000000000E+00
           strten14    0.0000000000E+00  0.0000000000E+00  0.0000000000E+00
                       0.0000000000E+00  0.0000000000E+00  0.0000000000E+00
           strten15    0.0000000000E+00  0.0000000000E+00  0.0000000000E+00
                       0.0000000000E+00  0.0000000000E+00  0.0000000000E+00
           symrel      1  0  0   0  1  0   0  0  1       0 -1  1   0 -1  0   1 -1  0
                      -1  0  0  -1  0  1  -1  1  0       0  1 -1   1  0 -1   0  0 -1
                      -1  0  0  -1  1  0  -1  0  1       0 -1  1   1 -1  0   0 -1  0
                       1  0  0   0  0  1   0  1  0       0  1 -1   0  0 -1   1  0 -1
                      -1  0  1  -1  1  0  -1  0  0       0 -1  0   1 -1  0   0 -1  1
                       1  0 -1   0  0 -1   0  1 -1       0  1  0   0  0  1   1  0  0
                       1  0 -1   0  1 -1   0  0 -1       0 -1  0   0 -1  1   1 -1  0
                      -1  0  1  -1  0  0  -1  1  0       0  1  0   1  0  0   0  0  1
                       0  0 -1   0  1 -1   1  0 -1       1 -1  0   0 -1  1   0 -1  0
                       0  0  1   1  0  0   0  1  0      -1  1  0  -1  0  0  -1  0  1
                       0  0  1   0  1  0   1  0  0       1 -1  0   0 -1  0   0 -1  1
                       0  0 -1   1  0 -1   0  1 -1      -1  1  0  -1  0  1  -1  0  0
           timopt          -1
            typat      1  2
              wtk        0.00195    0.01563    0.01563    0.01563    0.00781    0.01172
                         0.04688    0.04688    0.04688    0.04688    0.04688    0.02344
                         0.01172    0.04688    0.04688    0.04688    0.02344    0.01172
                         0.04688    0.02344    0.00586    0.04688    0.09375    0.04688
                         0.04688    0.09375    0.04688    0.02344    0.01172
           xangst      0.0000000000E+00  0.0000000000E+00  0.0000000000E+00
                       1.0875000000E+00  1.0875000000E+00  1.0875000000E+00
            xcart      0.0000000000E+00  0.0000000000E+00  0.0000000000E+00
                       2.0550771695E+00  2.0550771695E+00  2.0550771695E+00
             xred      0.0000000000E+00  0.0000000000E+00  0.0000000000E+00
                       2.5000000000E-01  2.5000000000E-01  2.5000000000E-01
            znucl        6.00000   14.00000

================================================================================

 Test the timer : 
  a combined call timab(*,1,tsec) + timab(*,2,tsec) is 
- CPU time =    6.0100E-07 sec,    Wall time =    6.0136E-07 sec

- Total cpu        time (s,m,h):    1099662.5    18327.71    305.462
- Total wall clock time (s,m,h):    1099944.3    18332.40    305.540
-
- For major independent code sections, cpu and wall times (sec),
-  as well as % of the time and number of calls for node 0
-
-<BEGIN_TIMER mpi_nprocs = 512, omp_nthreads = 1, mpi_rank = 0>
- cpu_time =         2145.2, wall_time =         2148.3
-
- routine                            cpu     %          wall     %      number of calls Gflops    Speedup Efficacity
-                                                                        (-1=no count)
- gwr_build_tchi                 1806.308   0.2      1807.820   0.2             15      -1.00        1.00       1.00
- gwr_gk_to_scbox                 307.786   0.0       308.119   0.0           3450      -1.00        1.00       1.00
- gsph2box                        195.378   0.0       195.837   0.0        3532800      -1.00        1.00       1.00
- gwr_rpa_energy                  181.691   0.0       181.828   0.0             15      -1.00        1.00       1.00
- gwr_build_head_wings             88.291   0.0        88.335   0.0             15      -1.00        1.00       1.00
- gwr_build_green                  47.558   0.0        47.580   0.0             15      -1.00        1.00       1.00
- gwr_init                          8.487   0.0         8.677   0.0             15      -1.00        0.98       0.98
- gwr_read_ugb_from_wfk             4.383   0.0         4.571   0.0             15      -1.00        0.96       0.96
- others (147)                      2.858   0.0         3.046   0.0             -1      -1.00        0.94       0.94
-<END_TIMER>
-
- subtotal                       2642.739   0.2      2645.812   0.2                                  1.00       1.00

- For major independent code sections, cpu and wall times (sec),
- as well as % of the total time and number of calls 

-<BEGIN_TIMER mpi_nprocs = 512, omp_nthreads = 1, mpi_rank = world>
- cpu_time =     1099662.5, wall_time =     1099944.3
-
- routine                            cpu     %          wall     %      number of calls Gflops    Speedup Efficacity
-                                                                        (-1=no count)
- gwr_build_tchi               929353.600  84.5    929457.863  84.5           7680      -1.00        1.00       1.00
- gwr_gk_to_scbox              163263.824  14.8    163277.628  14.8        1749600      -1.00        1.00       1.00
- gsph2box                     104267.427   9.5    104451.443   9.5     1791590400      -1.00        1.00       1.00
- gwr_rpa_energy                75854.646   6.9     75910.407   6.9           7680      -1.00        1.00       1.00
- gwr_build_head_wings          44746.973   4.1     44755.555   4.1           7680      -1.00        1.00       1.00
- gwr_build_green               19012.863   1.7     19014.565   1.7           7680      -1.00        1.00       1.00
- gwr_init                       4229.111   0.4      4249.255   0.4           7680      -1.00        1.00       1.00
- gwr_read_ugb_from_wfk          2756.781   0.3      2812.871   0.3           7680      -1.00        0.98       0.98
- pspini                          339.730   0.0       349.567   0.0           7680      -1.00        0.97       0.97
- kpgsph                          257.861   0.0       257.269   0.0       24092595      -1.00        1.00       1.00
- xc:pot/=fourdp                  164.935   0.0       165.123   0.0          15360      -1.00        1.00       1.00
- invars2                         154.656   0.0       154.693   0.0           7680      -1.00        1.00       1.00
- fourdp                          148.281   0.0       151.193   0.0         145920      -1.00        0.98       0.98
- wfd_read_wfk                    101.657   0.0       102.206   0.0           7680      -1.00        0.99       0.99
- abinit(2)                        93.543   0.0        94.370   0.0            512      -1.00        0.99       0.99
- ewald                            78.814   0.0        78.823   0.0           7680      -1.00        1.00       1.00
- timing timab                     59.894   0.0        59.891   0.0           7168      -1.00        1.00       1.00
- mkcore                           50.504   0.0        50.517   0.0           7680      -1.00        1.00       1.00
- mkffnl                           19.908   0.0        19.842   0.0          55680      -1.00        1.00       1.00
- others (136)                      0.000   0.0         0.000   0.0             -1      -1.00        0.00       0.00
-<END_TIMER>

- subtotal                    1344955.007 122.3   1345413.081 122.3                                  1.00       1.00

 Partitioning of abinit
- abinit                      1099662.502 100.0   1099944.257 100.0            512                   1.00       1.00
 
- abinit(4)                       323.545   0.0       330.541   0.0            512                   0.98       0.98
- driver                      1099195.752 100.0   1099465.778 100.0            512                   1.00       1.00

- subtotal                    1099662.502 100.0   1099944.257 100.0                                  1.00       1.00

 Partitioning of driver
- driver                      1099195.752 100.0   1099465.778 100.0            512                   1.00       1.00
 
- (other)                     1099173.340 100.0   1099436.951 100.0             -1                   1.00       1.00

- subtotal                    1099195.752 100.0   1099465.778 100.0                                  1.00       1.00

 Partitioning of  fourdp (upwards partitioning)
- fourdp                          148.281   0.0       151.193   0.0         145920                   0.98       0.98
 

- subtotal                        148.281   0.0       151.193   0.0                                  0.98       0.98
-
-Synchronisation (=leave_test) and MPI calls 
- communic.MPI                      8.411   0.0         8.531   0.0            512                   0.99       0.99
-
- subtotal                          0.000   0.0         0.000   0.0                                  0.00       0.00

 Additional information
- timana(1)                         0.501   0.0         0.515   0.0            512                   0.97       0.97
- total timab                    1152.804   0.1      1152.740   0.1     1917564819                   1.00       1.00
- xc:fourdp                        91.297   0.0        91.124   0.0         122880                   1.00       1.00
- read_rho                         24.674   0.0        24.893   0.0           7680                   0.99       0.99

 timana : in multi dataset mode, the more detailed analysis is not done.

================================================================================

 Suggested references for the acknowledgment of ABINIT usage.

 The users of ABINIT have little formal obligations with respect to the ABINIT group
 (those specified in the GNU General Public License, http://www.gnu.org/copyleft/gpl.txt).
 However, it is common practice in the scientific literature,
 to acknowledge the efforts of people that have made the research possible.
 In this spirit, please find below suggested citations of work written by ABINIT developers,
 corresponding to implementations inside of ABINIT that you have used in the present run.
 Note also that it will be of great value to readers of publications presenting these results,
 to read papers enabling them to understand the theoretical formalism and details
 of the ABINIT implementation.
 For information on why they are suggested, see also https://docs.abinit.org/theory/acknowledgments.
-
- [1] The Abinit project: Impact, environment and recent developments.
- Computer Phys. Comm. 248, 107042 (2020).
- X.Gonze, B. Amadon, G. Antonius, F.Arnardi, L.Baguet, J.-M.Beuken,
- J.Bieder, F.Bottin, J.Bouchet, E.Bousquet, N.Brouwer, F.Bruneval,
- G.Brunin, T.Cavignac, J.-B. Charraud, Wei Chen, M.Cote, S.Cottenier,
- J.Denier, G.Geneste, Ph.Ghosez, M.Giantomassi, Y.Gillet, O.Gingras,
- D.R.Hamann, G.Hautier, Xu He, N.Helbig, N.Holzwarth, Y.Jia, F.Jollet,
- W.Lafargue-Dit-Hauret, K.Lejaeghere, M.A.L.Marques, A.Martin, C.Martins,
- H.P.C. Miranda, F.Naccarato, K. Persson, G.Petretto, V.Planes, Y.Pouillon,
- S.Prokhorenko, F.Ricci, G.-M.Rignanese, A.H.Romero, M.M.Schmitt, M.Torrent,
- M.J.van Setten, B.Van Troeye, M.J.Verstraete, G.Zerah and J.W.Zwanzig
- Comment: the fifth generic paper describing the ABINIT project.
- Note that a version of this paper, that is not formatted for Computer Phys. Comm. 
- is available at https://www.abinit.org/sites/default/files/ABINIT20.pdf .
- The licence allows the authors to put it on the Web.
- DOI and bibtex: see https://docs.abinit.org/theory/bibliography/#gonze2020
-
- [2] Optimized norm-conserving Vanderbilt pseudopotentials.
- D.R. Hamann, Phys. Rev. B 88, 085117 (2013).
- Comment: Some pseudopotential generated using the ONCVPSP code were used.
- DOI and bibtex: see https://docs.abinit.org/theory/bibliography/#hamann2013
-
- [3] ABINIT: Overview, and focus on selected capabilities
- J. Chem. Phys. 152, 124102 (2020).
- A. Romero, D.C. Allan, B. Amadon, G. Antonius, T. Applencourt, L.Baguet,
- J.Bieder, F.Bottin, J.Bouchet, E.Bousquet, F.Bruneval,
- G.Brunin, D.Caliste, M.Cote,
- J.Denier, C. Dreyer, Ph.Ghosez, M.Giantomassi, Y.Gillet, O.Gingras,
- D.R.Hamann, G.Hautier, F.Jollet, G. Jomard,
- A.Martin, 
- H.P.C. Miranda, F.Naccarato, G.Petretto, N.A. Pike, V.Planes,
- S.Prokhorenko, T. Rangel, F.Ricci, G.-M.Rignanese, M.Royo, M.Stengel, M.Torrent,
- M.J.van Setten, B.Van Troeye, M.J.Verstraete, J.Wiktor, J.W.Zwanziger, and X.Gonze.
- Comment: a global overview of ABINIT, with focus on selected capabilities .
- Note that a version of this paper, that is not formatted for J. Chem. Phys 
- is available at https://www.abinit.org/sites/default/files/ABINIT20_JPC.pdf .
- The licence allows the authors to put it on the Web.
- DOI and bibtex: see https://docs.abinit.org/theory/bibliography/#romero2020
-
- [4] Recent developments in the ABINIT software package.
- Computer Phys. Comm. 205, 106 (2016).
- X.Gonze, F.Jollet, F.Abreu Araujo, D.Adams, B.Amadon, T.Applencourt,
- C.Audouze, J.-M.Beuken, J.Bieder, A.Bokhanchuk, E.Bousquet, F.Bruneval
- D.Caliste, M.Cote, F.Dahm, F.Da Pieve, M.Delaveau, M.Di Gennaro,
- B.Dorado, C.Espejo, G.Geneste, L.Genovese, A.Gerossier, M.Giantomassi,
- Y.Gillet, D.R.Hamann, L.He, G.Jomard, J.Laflamme Janssen, S.Le Roux,
- A.Levitt, A.Lherbier, F.Liu, I.Lukacevic, A.Martin, C.Martins,
- M.J.T.Oliveira, S.Ponce, Y.Pouillon, T.Rangel, G.-M.Rignanese,
- A.H.Romero, B.Rousseau, O.Rubel, A.A.Shukri, M.Stankovski, M.Torrent,
- M.J.Van Setten, B.Van Troeye, M.J.Verstraete, D.Waroquier, J.Wiktor,
- B.Xu, A.Zhou, J.W.Zwanziger.
- Comment: the fourth generic paper describing the ABINIT project.
- Note that a version of this paper, that is not formatted for Computer Phys. Comm. 
- is available at https://www.abinit.org/sites/default/files/ABINIT16.pdf .
- The licence allows the authors to put it on the Web.
- DOI and bibtex: see https://docs.abinit.org/theory/bibliography/#gonze2016
-
- And optionally:
-
- [5] ABINIT: First-principles approach of materials and nanosystem properties.
- Computer Phys. Comm. 180, 2582-2615 (2009).
- X. Gonze, B. Amadon, P.-M. Anglade, J.-M. Beuken, F. Bottin, P. Boulanger, F. Bruneval,
- D. Caliste, R. Caracas, M. Cote, T. Deutsch, L. Genovese, Ph. Ghosez, M. Giantomassi
- S. Goedecker, D.R. Hamann, P. Hermet, F. Jollet, G. Jomard, S. Leroux, M. Mancini, S. Mazevet,
- M.J.T. Oliveira, G. Onida, Y. Pouillon, T. Rangel, G.-M. Rignanese, D. Sangalli, R. Shaltaf,
- M. Torrent, M.J. Verstraete, G. Zerah, J.W. Zwanziger
- Comment: the third generic paper describing the ABINIT project.
- Note that a version of this paper, that is not formatted for Computer Phys. Comm. 
- is available at https://www.abinit.org/sites/default/files/ABINIT_CPC_v10.pdf .
- The licence allows the authors to put it on the Web.
- DOI and bibtex: see https://docs.abinit.org/theory/bibliography/#gonze2009
-
- Proc.   0 individual time (sec): cpu=       2145.3  wall=       2148.3

================================================================================

 Calculation completed.
.Delivered   0 WARNINGs and   0 COMMENTs to log file.
+Overall time at end (sec) : cpu=    1099671.3  wall=    1099953.3
